<?xml version="1.0"?>
<VTKFile type="UnstructuredGrid"  version="0.1"  >
<UnstructuredGrid>
<Piece  NumberOfPoints="2331" NumberOfCells="4248">
<Points>
<DataArray  type="Float64"  NumberOfComponents="3"  format="ascii">0 0.3 0  0 0 0  0.04999999999999999 0 0  0.0514582251803892 0.02410733605106462 0  0.0558116365147896 0.04786313285751154 0  0.06299675146291706 0.07092097740850717 0  0.07290879486935808 0.09294463440875382 0  0.08540322682126872 0.1136129493462312 0  0.1002978503657798 0.132624531648159 0  0.117375468351841 0.1497021496342203 0  0.1363870506537689 0.1645967731787313 0  0.1570553655912463 0.177091205130642 0  0.1790790225914929 0.187003248537083 0  0.2021368671424885 0.1941883634852104 0  0.2258926639489354 0.1985417748196108 0  0.25 0.2 0  0.2741073360510646 0.1985417748196108 0  0.2978631328575116 0.1941883634852104 0  0.3209209774085071 0.187003248537083 0  0.3429446344087537 0.177091205130642 0  0.3636129493462312 0.1645967731787313 0  0.3826245316481591 0.1497021496342202 0  0.3997021496342202 0.132624531648159 0  0.4145967731787313 0.1136129493462312 0  0.427091205130642 0.09294463440875371 0  0.4370032485370829 0.07092097740850713 0  0.4441883634852104 0.04786313285751155 0  0.4485417748196108 0.02410733605106461 0  0.45 0 0  0.55 0 0  0.5514582251803892 0.02410733605106462 0  0.5558116365147896 0.04786313285751154 0  0.5629967514629171 0.07092097740850717 0  0.5729087948693581 0.09294463440875382 0  0.5854032268212688 0.1136129493462312 0  0.6002978503657798 0.132624531648159 0  0.617375468351841 0.1497021496342203 0  0.6363870506537689 0.1645967731787313 0  0.6570553655912463 0.177091205130642 0  0.6790790225914929 0.187003248537083 0  0.7021368671424885 0.1941883634852104 0  0.7258926639489354 0.1985417748196108 0  0.75 0.2 0  0.7741073360510646 0.1985417748196108 0  0.7978631328575116 0.1941883634852104 0  0.8209209774085071 0.187003248537083 0  0.8429446344087537 0.177091205130642 0  0.8636129493462312 0.1645967731787313 0  0.8826245316481591 0.1497021496342202 0  0.8997021496342202 0.132624531648159 0  0.9145967731787312 0.1136129493462312 0  0.927091205130642 0.09294463440875371 0  0.9370032485370829 0.07092097740850713 0  0.9441883634852104 0.04786313285751155 0  0.9485417748196108 0.02410733605106461 0  0.95 0 0  1 0 0  1 0.3 0  0.9758926639489353 0.3014582251803892 0  0.9521368671424885 0.3058116365147896 0  0.9290790225914928 0.3129967514629171 0  0.9070553655912461 0.3229087948693581 0  0.8863870506537688 0.3354032268212687 0  0.867375468351841 0.3502978503657798 0  0.8502978503657798 0.367375468351841 0  0.8354032268212687 0.3863870506537689 0  0.822908794869358 0.4070553655912464 0  0.8129967514629171 0.4290790225914929 0  0.8058116365147896 0.4521368671424885 0  0.8014582251803892 0.4758926639489354 0  0.8 0.4999999999999999 0  0.8014582251803892 0.5241073360510646 0  0.8058116365147896 0.5478631328575115 0  0.8129967514629171 0.5709209774085071 0  0.8229087948693581 0.5929446344087538 0  0.8354032268212688 0.6136129493462312 0  0.8502978503657798 0.632624531648159 0  0.867375468351841 0.6497021496342202 0  0.8863870506537689 0.6645967731787313 0  0.9070553655912463 0.677091205130642 0  0.9290790225914929 0.6870032485370829 0  0.9521368671424885 0.6941883634852104 0  0.9758926639489354 0.6985417748196108 0  1 0.7 0  1 1 0  0.95 1 0  0.9485417748196108 0.9758926639489353 0  0.9441883634852104 0.9521368671424885 0  0.9370032485370829 0.9290790225914928 0  0.927091205130642 0.9070553655912463 0  0.9145967731787312 0.8863870506537688 0  0.8997021496342201 0.8673754683518409 0  0.882624531648159 0.8502978503657798 0  0.863612949346231 0.8354032268212686 0  0.8429446344087537 0.822908794869358 0  0.8209209774085071 0.8129967514629171 0  0.7978631328575114 0.8058116365147896 0  0.7741073360510646 0.8014582251803892 0  0.75 0.8 0  0.7258926639489353 0.8014582251803892 0  0.7021368671424885 0.8058116365147896 0  0.6790790225914928 0.8129967514629171 0  0.6570553655912461 0.8229087948693581 0  0.6363870506537688 0.8354032268212688 0  0.617375468351841 0.8502978503657798 0  0.6002978503657798 0.867375468351841 0  0.5854032268212687 0.8863870506537689 0  0.572908794869358 0.9070553655912463 0  0.5629967514629171 0.9290790225914929 0  0.5558116365147896 0.9521368671424885 0  0.5514582251803892 0.9758926639489355 0  0.55 0.9999999999999999 0  0.45 0.9999999999999999 0  0.4485417748196108 0.9758926639489353 0  0.4441883634852104 0.9521368671424885 0  0.4370032485370829 0.9290790225914928 0  0.427091205130642 0.9070553655912463 0  0.4145967731787313 0.8863870506537688 0  0.3997021496342201 0.8673754683518409 0  0.382624531648159 0.8502978503657798 0  0.363612949346231 0.8354032268212686 0  0.3429446344087536 0.822908794869358 0  0.3209209774085071 0.8129967514629171 0  0.2978631328575115 0.8058116365147896 0  0.2741073360510646 0.8014582251803892 0  0.25 0.8 0  0.2258926639489353 0.8014582251803892 0  0.2021368671424885 0.8058116365147896 0  0.1790790225914928 0.8129967514629171 0  0.1570553655912462 0.8229087948693581 0  0.1363870506537688 0.8354032268212688 0  0.117375468351841 0.8502978503657798 0  0.1002978503657797 0.867375468351841 0  0.08540322682126869 0.8863870506537689 0  0.07290879486935797 0.9070553655912463 0  0.06299675146291703 0.9290790225914929 0  0.05581163651478957 0.9521368671424885 0  0.0514582251803892 0.9758926639489355 0  0.04999999999999999 0.9999999999999999 0  0 1 0  -0 0.7000000000000001 0  0.0241073360510646 0.6985417748196108 0  0.04786313285751161 0.6941883634852104 0  0.07092097740850711 0.6870032485370829 0  0.09294463440875372 0.677091205130642 0  0.1136129493462312 0.6645967731787312 0  0.1326245316481591 0.6497021496342202 0  0.1497021496342202 0.632624531648159 0  0.1645967731787313 0.6136129493462312 0  0.177091205130642 0.5929446344087537 0  0.187003248537083 0.5709209774085071 0  0.1941883634852104 0.5478631328575115 0  0.1985417748196108 0.5241073360510646 0  0.2 0.5 0  0.1985417748196108 0.4758926639489353 0  0.1941883634852104 0.4521368671424885 0  0.1870032485370829 0.4290790225914928 0  0.177091205130642 0.4070553655912463 0  0.1645967731787313 0.3863870506537688 0  0.1497021496342202 0.3673754683518409 0  0.132624531648159 0.3502978503657798 0  0.113612949346231 0.3354032268212686 0  0.09294463440875361 0.322908794869358 0  0.07092097740850711 0.3129967514629171 0  0.04786313285751148 0.3058116365147896 0  0.02410733605106464 0.3014582251803892 0  0.6985417748196108 0.5241073360510646 0  0.7 0.5 0  0.6985417748196108 0.4758926639489353 0  0.6941883634852104 0.4521368671424885 0  0.6870032485370829 0.4290790225914928 0  0.677091205130642 0.4070553655912463 0  0.6645967731787312 0.3863870506537688 0  0.6497021496342201 0.3673754683518409 0  0.632624531648159 0.3502978503657798 0  0.613612949346231 0.3354032268212686 0  0.5929446344087537 0.322908794869358 0  0.5709209774085071 0.3129967514629171 0  0.5478631328575114 0.3058116365147896 0  0.5241073360510646 0.3014582251803892 0  0.4999999999999999 0.3 0  0.4758926639489353 0.3014582251803892 0  0.4521368671424885 0.3058116365147896 0  0.4290790225914928 0.3129967514629171 0  0.4070553655912462 0.3229087948693581 0  0.3863870506537688 0.3354032268212687 0  0.367375468351841 0.3502978503657798 0  0.3502978503657798 0.367375468351841 0  0.3354032268212687 0.3863870506537689 0  0.322908794869358 0.4070553655912464 0  0.3129967514629171 0.4290790225914929 0  0.3058116365147896 0.4521368671424885 0  0.3014582251803892 0.4758926639489354 0  0.3 0.4999999999999999 0  0.3014582251803892 0.5241073360510646 0  0.3058116365147896 0.5478631328575115 0  0.3129967514629171 0.5709209774085071 0  0.3229087948693581 0.5929446344087538 0  0.3354032268212687 0.6136129493462312 0  0.3502978503657798 0.632624531648159 0  0.367375468351841 0.6497021496342202 0  0.3863870506537689 0.6645967731787313 0  0.4070553655912463 0.677091205130642 0  0.4290790225914929 0.6870032485370829 0  0.4521368671424885 0.6941883634852104 0  0.4758926639489354 0.6985417748196108 0  0.4999999999999999 0.7 0  0.5241073360510646 0.6985417748196108 0  0.5478631328575116 0.6941883634852104 0  0.5709209774085071 0.6870032485370829 0  0.5929446344087537 0.677091205130642 0  0.6136129493462312 0.6645967731787312 0  0.6326245316481591 0.6497021496342202 0  0.6497021496342202 0.632624531648159 0  0.6645967731787312 0.6136129493462312 0  0.677091205130642 0.5929446344087537 0  0.6870032485370829 0.5709209774085071 0  0.6941883634852104 0.5478631328575115 0  0 0.15 0  1 0.15 0  1 0.85 0  0 0.8500000000000001 0  0 0.075 0  1 0.075 0  1 0.925 0  0 0.925 0  0.5 0.8127595604293815 0  0.5069440078039168 0.190422209288238 0  0.25 0.3127595604293815 0  0.756944007803917 0.3095777907117619 0  0.756944007803917 0.6904222092882382 0  0.25 0.6872404395706185 0  0 0.225 0  0.4255768646051012 0.2241073097134061 0  1 0.7749999999999999 0  0.6773391559270888 0.2766774022734219 0  1 0.225 0  0.6755768646051011 0.7241073097134062 0  0 0.7750000000000001 0  0.5818971135297744 0.2287925518358889 0  0.8318971135297746 0.728792551835889 0  0.1659156081861886 0.7301636995921477 0  0.08376842746533225 0.2299656297760495 0  0.4236002201977974 0.7746535834185855 0  0.0840843918138115 0.7698363004078523 0  0.3340843918138113 0.7301636995921477 0  0.3340843918138114 0.2698363004078523 0  0.9159156081861887 0.2301636995921477 0  0.5840843918138116 0.7698363004078522 0  0.1659156081861887 0.2698363004078523 0  0.9162315725346678 0.7700343702239506 0  0.8340843918138114 0.2698363004078523 0  0.75 0.6146645247768686 0  0.5 0.1125158665330878 0  0.75 0.3874841334669124 0  0.2504983345544904 0.6122915843562002 0  0.2504983345544902 0.3877084156437999 0  0.5 0.8879783056303169 0  0.7005361650220154 0.3333055947145943 0  0.70416808765371 0.6599554817221275 0  0.449930214263529 0.1678187287522426 0  0.2247310981387008 0.7415600637745463 0  0.5155081196221678 0.7563797802146907 0  0.2752689018612993 0.2584399362254537 0  0.05605196690611226 0.8246131191226815 0  0.9439480330938878 0.1
[...]
<PointData  Scalars="Temperature"> 
<DataArray  type="Float64"  Name="Temperature"  format="ascii">7.4152617865558582e+01  7.4927598069854682e+01  7.4926323469610836e+01  7.4908750787674975e+01  7.4859600941722761e+01  7.4783131977034841e+01  7.4680777609653731e+01  7.4553528514883979e+01  7.4402556329925602e+01  7.4225615923128032e+01  7.4017742450658403e+01  7.3781393170884527e+01  7.3523628366603532e+01  7.3250372444618876e+01  7.2967558059742629e+01  7.2682465990337874e+01  7.2395681803318098e+01  7.2105664295992696e+01  7.1817472463011782e+01  7.1528902764188501e+01  7.1254022217179795e+01  7.1002638959614671e+01  7.0785417629085430e+01  7.0617359333831587e+01  7.0497321884639931e+01  7.0423691135108285e+01  7.0383677468334497e+01  7.0367526247744848e+01  7.0363563145231595e+01  7.0309110126075055e+01  7.0293623076002547e+01  7.0245504020262231e+01  7.0155277280192308e+01  7.0014943469115011e+01  6.9812029912801833e+01  6.9545720695118234e+01  6.9220411616868830e+01  6.8846964445026444e+01  6.8442107100747506e+01  6.8029528939316251e+01  6.7633209770525639e+01  6.7273141480538030e+01  6.6961498603600560e+01  6.6701785444073323e+01  6.6490771907179109e+01  6.6324555125822812e+01  6.6191855001239361e+01  6.6086632886812950e+01  6.6003285685980032e+01  6.5935881928476505e+01  6.5881575066187978e+01  6.5837223819265574e+01  6.5802178237783636e+01  6.5776170952097644e+01  6.5759479473451407e+01  6.5753523846339533e+01  6.5753036505628131e+01  6.5981314243469441e+01  6.5989925753868349e+01  6.6014146914888315e+01  6.6048982235937942e+01  6.6085145679711900e+01  6.6109951864505973e+01  6.6106616022739900e+01  6.6057591555443651e+01  6.5949443790222162e+01  6.5775954707706958e+01  6.5524580245351800e+01  6.5210176380548234e+01  6.4847069469952856e+01  6.4458761780009780e+01  6.4071609062288360e+01  6.3707452400010567e+01  6.3369981708361578e+01  6.3063183681168340e+01  6.2775610782104899e+01  6.2503210977880670e+01  6.2247230610904779e+01  6.2004468162826484e+01  6.1786297356941674e+01  6.1600922611718921e+01  6.1460246099404216e+01  6.1373346857465130e+01  6.1342854083264882e+01  6.0674071706592159e+01  6.0675095589850166e+01  6.0690170426549400e+01  6.0732447568720367e+01  6.0798227997877113e+01  6.0886505060469460e+01  6.0996126835890209e+01  6.1127076936648692e+01  6.1281135658671566e+01  6.1459124320977658e+01  6.1662741997483153e+01  6.1888132300439544e+01  6.2126731168787401e+01  6.2376027465990624e+01  6.2625193213488700e+01  6.2879682984913529e+01  6.3136552819351664e+01  6.3395383795833752e+01  6.3651929678582597e+01  6.3900756415183693e+01  6.4124653087833366e+01  6.4320175033710470e+01  6.4469866771871992e+01  6.4578096458253995e+01  6.4643047725432368e+01  6.4676130192625095e+01  6.4690308618982172e+01  6.4693551769898448e+01  6.4743214224498900e+01  6.4758897437653587e+01  6.4805114306962068e+01  6.4888763127682225e+01  6.5019765721827909e+01  6.5210445468612861e+01  6.5458707730884981e+01  6.5764019122287891e+01  6.6111306501148988e+01  6.6489428630292963e+01  6.6871766669198635e+01  6.7235152027411004e+01  6.7565354519835367e+01  6.7843397343695457e+01  6.8070460281085218e+01  6.8245838629188427e+01  6.8378932544127281e+01  6.8478240029434986e+01  6.8552849598012997e+01  6.8609603203366930e+01  6.8653211830995573e+01  6.8686981795019761e+01  6.8714067753363750e+01  6.8734957553193851e+01  6.8750532051420123e+01  6.8760045156013689e+01  6.8763630877675055e+01  6.8763744248888528e+01  6.8643106217722064e+01  6.8638780084326214e+01  6.8627479123062386e+01  6.8613661208803961e+01  6.8604875410189493e+01  6.8612682364929981e+01  6.8651515411074641e+01  6.8736460726279745e+01  6.8883248059239264e+01  6.9098832332170758e+01  6.9389861785490822e+01  6.9748390029803744e+01  7.0160426408235310e+01  7.0597308698308922e+01  7.1033926533486849e+01  7.1447926940765782e+01  7.1829183377725002e+01  7.2178302502206691e+01  7.2506010890793505e+01  7.2816979447322041e+01  7.3113334910305312e+01  7.3389359473603733e+01  7.3639987925784311e+01  7.3853962619621853e+01  7.4014541839002504e+01  7.4116843164348310e+01  6.4118884890044342e+01  6.4495867713353704e+01  6.4899482087248188e+01  6.5310814111625277e+01  6.5718717888570779e+01  6.6121942722141398e+01  6.6528638553443884e+01  6.6948595546352180e+01  6.7389512140746945e+01  6.7842645848158455e+01  6.8304468656882023e+01  6.8768986268533965e+01  6.9219866839461005e+01  6.9652411568173221e+01  7.0062620855155785e+01  7.0447612020455239e+01  7.0803465034465191e+01  7.1129545373109067e+01  7.1416868087954924e+01  7.1656615817172494e+01  7.1828112603409593e+01  7.1923138734892291e+01  7.1926295045124562e+01  7.1832830644384543e+01  7.1636082966991495e+01  7.1349183962885391e+01  7.0983576299897251e+01  7.0561113967780514e+01  7.0112352399136569e+01  6.9660874630016423e+01  6.9222925105371814e+01  6.8790307783279815e+01  6.8369151654106204e+01  6.7947713568164886e+01  6.7516995456328800e+01  6.7080496575254230e+01  6.6634976473355195e+01  6.6199532221749138e+01  6.5774114392468391e+01  6.5372783696389533e+01  6.4993372120592952e+01  6.4639512831911730e+01  6.4310842068224332e+01  6.4015157427379620e+01  6.3752768427240589e+01  6.3536525880267064e+01  6.3380183569207261e+01  6.3292084190863505e+01  6.3286378162096689e+01  6.3369075607207236e+01  6.3541317722745333e+01  6.3796066338185035e+01  7.4553957943780347e+01  6.5875155038006753e+01  6.0994876564204105e+01  6.8693184481052199e+01  7.4813232335938807e+01  6.5791580415947976e+01  6.0772356892622064e+01  6.8741400745107498e+01  6.4892009895462223e+01  7.0091415969928804e+01  7.2477192942695922e+01  6.6549654907237212e+01  6.2750140251060749e+01  6.8259210042817116e+01  7.4290123582309974e+01  7.0917238158810079e+01  6.1222521913504870e+01  6.7513203364317860e+01  6.5949152446779763e+01  6.3245988515919279e+01  6.8655402255868580e+01  6.9089380808223282e+01  6.2088201718446975e+01  6.8452575618910714e+01  7.4054114326752284e+01  6.5807559385134198e+01  6.8602749603315999e+01  6.7193102169305618e+01  7.1892995149611295e+01  6.6033253249774177e+01  6.4105393822798163e+01  7.3317884167946602e+01  6.1427051466778252e+01  6.6277691029849180e+01  6.3178257598965438e+01  7.0257035046994631e+01  6.5956399563505173e+01  6.8935022262877268e+01  7.2023691715993010e+01  6.4796543067548470e+01  6.6807189247788727e+01  6.3118253901272745e+01  7.0586914245511892e+01  6.8150638017156353e+01  6.4780122438812597e+01  7.2402041449347365e+01  6.8656961376999547e+01  6.5935197298328418e+01  7.4378779351014146e+01  6.1160972479788775e+01  7.0290478318184157e+01  6.2821036587654469e+01  6.7003153243752138e+01  6.5332300038234237e+01  6.8559801225841156e+01  7.2832862473813492e+01  6.7898600008678272e+01  7.2083472105715487e+01  6.4426952172528303e+01  7.0314797463884219e+01  6.5278259032573317e+01  6.3854421456130396e+01  7.1417738031321520e+01  6.9842307681377349e+01  6.4717811566843949e+01  6.4740495050775863e+01  7.2869077558894844e+01  6.7749890031952745e+01  6.9602316352534686e+01  6.2746570740438884e+01  6.6222786317551325e+01  6.8296350719224620e+01  7.1381401879364120e+01  7.1541613627873645e+01  6.3607853633562499e+01  6.3752520737798498e+01  6.8138236967927782e+01  6.2439715549267291e+01  6.6576567014597885e+01  6.4560109894759776e+01  7.0336711222093030e+01  7.0670561343469913e+01  6.6489272577314409e+01  6.6583912149254843e+01  6.9706158840689085e+01  6.1712147212141922e+01  6.1750842365171927e+01  6.5253181208141754e+01  7.3780003134374951e+01  6.8637022991788868e+01  6.6086608033974798e+01  6.8502774142531536e+01  7.3646845832361620e+01  6.8569656784394724e+01  6.5986373397427471e+01  6.6173665353209685e+01  6.1362077093508638e+01  7.4128152416202568e+01  6.5867069056635415e+01  6.0948971823772261e+01  7.4608459718590453e+01  6.8696888199907875e+01  6.6037538008083928e+01  6.2440917269530630e+01  6.9963347590158435e+01  6.2988959146416917e+01  6.4067061330731022e+01  6.7325022901376514e+01  7.3249243102133036e+01  6.6021580397499207e+01  7.1818588403771685e+01  6.8572880106825792e+01  6.8600868511025581e+01  7.4151935001407168e+01  6.1365686934512318e+01  6.8820802584374164e+01  7.2397391637945447e+01  6.4693573378798959e+01  6.2177623690272718e+01  7.2181762949345739e+01  6.8426551577441174e+01  6.7535713227136895e+01  6.7479537334969294e+01  6.5892045581372685e+01  7.0781350546917238e+01  6.3390210891094910e+01  7.1068698243467651e+01  6.3228582991935347e+01  6.5050806663991381e+01  6.5670187668454474e+01  6.9010176838873349e+01  6.6976772951449362e+01  6.2120361498247846e+01  6.8872982273861226e+01  6.8306806979029318e+01  7.1961555062794545e+01  6.7276838703692206e+01  7.3236821447589207e+01  6.6166214666665013e+01  6.4160325656102245e+01  7.0467981377368531e+01  7.4268013748947936e+01  6.6360280306007354e+01  6.5965744282734420e+01  6.8643495037546586e+01  6.4591187463442992e+01  6.8671501191899139e+01  6.5915943774285381e+01  6.6407557565696322e+01  6.1107972933913842e+01  7.0467747347166622e+01  6.6386511121376117e+01  6.6292367915305050e+01  7.0289785691408369e+01  7.4416244893443661e+01  6.3417134261972777e+01  6.3374894730583421e+01  6.2923604450988265e+01  6.9373995028130281e+01  7.1985904766989833e+01  6.8573335931105589e+01  7.1965749002234006e+01  6.8612010616346694e+01  7.0370219299085392e+01  7.0202898319885307e+01  6.5605807770532891e+01  6.5777344361749201e+01  6.4580778794629865e+01  6.4691428528009752e+01  6.4879247917748785e+01  6.1114811494254369e+01  6.8646326891621413e+01  6.0876818683883130e+01  6.5971245569388174e+01  7.4193148797798500e+01  6.5763276229971524e+01  7.4897416485265964e+01  6.5831398544715370e+01  6.5816868553449112e+01  7.4692086865426958e+01  6.0699929948674090e+01  6.8757787624958610e+01  6.1306503354115705e+01  6.8718320989991724e+01  6.8726192493831988e+01  7.1713083251820493e+01  6.9293250431001056e+01  6.8339322124568596e+01  7.2174175044536398e+01  6.5010032929056450e+01  6.1539375088691642e+01  6.7754277504779793e+01  7.2808604710200314e+01  6.2551532355763676e+01  6.3036382537938714e+01  6.5175329767809075e+01  6.1251703677455652e+01  6.4408785084339698e+01  6.9866624970900332e+01  6.8577100675145616e+01  7.2385698836220413e+01  7.3639362718104763e+01  6.8638281983208472e+01  6.9948312494501309e+01  6.6670917953651227e+01  6.6278742768036139e+01  6.4534756747148222e+01  6.3189703491349015e+01  6.3268226630270078e+01  6.0832631025576241e+01  7.4743029972752808e+01  7.3920630272456762e+01  6.2477958020642944e+01  6.7937258993552888e+01  7.2765814165908651e+01  6.6165646474218661e+01  6.9518660875642752e+01  6.3170226457773410e+01  6.6029129228690280e+01  6.6718067794363066e+01  7.1223343754922567e+01  6.3482607750860282e+01  6.6093125656075046e+01  7.4856019561152479e+01  6.5783814191887416e+01  6.0735796367775663e+01  6.8749458263378827e+01  6.6287712029851690e+01  6.3653264580430225e+01  7.0621690985798182e+01  6.8666821028086076e+01  6.8677643704522865e+01  6.5915429137901214e+01  6.5902541983144161e+01  6.6831661220498518e+01  7.4344112701732712e+01  7.4222999215706622e+01  7.4467463200282836e+01  7.0815846386455334e+01  7.0733040715250652e+01  7.3960625529634186e+01  6.5198356614533679e+01  6.8588366831097289e+01  6.8527929265481845e+01  6.6115335437930241e+01  6.7194475410156869e+01  6.6794038376325844e+01  7.1368146014929678e+01  6.3615665383731219e+01  6.1046846013571027e+01  6.3232716789716484e+01  6.2952288957516771e+01  6.9279119141117661e+01  6.4699570293573828e+01  6.6132360101839026e+01  7.0350408022888914e+01  7.0311197607952920e+01  6.4918074455508091e+01  6.5111515418993477e+01  7.1053442729133209e+01  7.1252586348858344e+01  6.7258246214438401e+01  6.1928975843998330e+01  6.4763377856821577e+01  6.8231171138251355e+01  7.2129151991424933e+01  6.6887920899029069e+01  7.3039596865584045e+01  6.7593990519942750e+01  6.8018878507887052e+01  6.8340249527422841e+01  7.2284976018261659e+01  7.2577532065722608e+01  6.8117731242560581e+01  6.4258376238527646e+01  6.4419702262043884e+01  7.2262996843619689e+01  6.8489042049902309e+01  7.1990357555639875e+01  7.2951241681358297e+01  6.7762101514531878e+01  6.8726727436730386e+01  6.4651743612353428e+01  6.4200601411906206e+01  6.4263710348902578e+01  7.0339178345631538e+01  7.0258819672675585e+01  7.3537796237654518e+01  6.3064059472895096e+01  6.2951365214778029e+01  6.2787987884577696e+01  7.1123271565110372e+01  6.3461561428286842e+01  6.4863472741527275e+01  7.1082831750714050e+01  6.5305151484324355e+01  6.5514472218448830e+01  6.6688141268250945e+01  7.0264737399704899e+01  7.0185167116644152e+01  6.7223467393848793e+01  6.7840997885184905e+01  6.1282203077581293e+01  7.3904052149271720e+01  6.6058380810391540e+01  6.9687674129028338e+01  6.1775340918082350e+01  6.1554077278730247e+01  6.6366019816978550e+01  6.6262930995366162e+01  6.6242675750468464e+01  6.8409116410047119e+01  7.1550120102412976e+01  7.1693594593474856e+01  6.3795740594352303e+01  6.3890885877992091e+01  6.6282378281562259e+01  6.9229183610858499e+01  7.0136283530688800e+01  6.8714461884231469e+01  6.6101690185311483e+01  6.3431520350990674e+01  6.5991209817625574e+01  6.8629059798708724e+01  6.9464872806424111e+01  6.0674589939721812e+01  6.5753265480360895e+01  7.4927062024232399e+01  6.8763727085266709e+01  7.0346570591759473e+01  6.8539061042179810e+01  7.1651510971152035e+01  6.5610484454007150e+01  6.3389202144499293e+01  6.6139329172552337e+01  7.0261990215435688e+01  7.0363981836534492e+01  7.1758431281755577e+01  6.6534537807153882e+01  6.1964148245349413e+01  6.1814439176613568e+01  6.1607067459290121e+01  6.1934129837562658e+01  6.3914773529646084e+01  7.1714027894591979e+01  6.9099543299597457e+01  6.4722385257790890e+01  6.4700890011017293e+01  6.4769612210671610e+01  6.3777015002139308e+01  6.3728813680112360e+01  6.9830557382818142e+01  6.9708888416726666e+01  7.3450108643285375e+01  7.1978657830622055e+01  6.6195454519758229e+01  7.3860479363393722e+01  6.8451878795962131e+01  6.6882499007336307e+01  6.5649605031699679e+01  7.4231489462407353e+01  7.0634336352269855e+01  6.2775251206294165e+01  6.2720003692029394e+01  6.1224914963129592e+01  6.8233892451121207e+01  7.3118926743963954e+01  6.7476358626839883e+01  6.8438661855408142e+01  6.8519729066611532e+01  6.8559930368775767e+01  7.0818930677514899e+01  6.4695893724025396e+01  7.4483398906246052e+01  6.1510598991392037e+01  7.1636842608972785e+01  6.7881704464342576e+01  6.8659672122237978e+01  6.5931969044734132e+01  6.2977355530451732e+01  6.7159687433329694e+01  7.1908961436589394e+01  6.4225627696214687e+01  7.2675393235064845e+01  6.5279520162848996e+01  6.1279557740658426e+01  6.8599025766040086e+01  6.7895092301600769e+01  7.1410218639542293e+01  6.6068807399704141e+01  7.0288310054542734e+01  6.5763924729891812e+01  6.8759438632482471e+01  7.4906131790193726e+01  6.0692250104338662e+01  6.7933142017545222e+01  6.6146993951500406e+01  6.1711089298016176e+01  6.6249960071315940e+01  6.8535342371541248e+01  6.7826582119985105e+01  6.6031177049547338e+01  6.3977438875054268e+01  7.4033261357049781e+01  6.8623105880781893e+01  6.8591448682121055e+01  6.8159524332833342e+01  6.6409582021268008e+01  6.6553407494071038e+01  6.6994528044831497e+01  6.8634032681281795e+01  6.5997659559292998e+01  6.8648218067506264e+01  6.5814582849668980e+01  6.9829008370695206e+01  7.2541455607993470e+01  6.8997480491688705e+01  6.2308049133439575e+01  7.2620755789959347e+01  6.4858504768388372e+01  6.2228015482975621e+01  6.2624324378637603e+01  6.2610014455986224e+01  6.6847773916313514e+01  6.4823514885968024e+01  6.1348363708803717e+01  7.0130686054478289e+01  7.3066549336589290e+01  6.7423325437150780e+01  6.4915288626754219e+01  6.3294480349275027e+01  6.8881366886199174e+01  6.8564792982462592e+01  6.1167166741134537e+01  7.2362991327775092e+01  6.8137622575107187e+01  7.0317630068487645e+01  6.4735372863307745e+01  7.0355711580161980e+01  7.0013336754175810e+01  7.3384791769670116e+01  6.5973548062045609e+01  6.8637757725354106e+01  6.8619564247907888e+01  6.5999295197888699e+01  6.5961902695982758e+01  6.5961471995430671e+01  6.1230635884556840e+01  7.4371399936944542e+01  6.8616355277718554e+01  7.2252559517627787e+01  6.4687598999194051e+01  6.9999595890781322e+01  6.9387814273177455e+01  6.8279475806999287e+01  7.0597560180349717e+01  7.1932956573885008e+01  7.2662004091075715e+01  6.6109891642638416e+01  6.8709231181538570e+01  6.5858336985250489e+01  6.2009172006660762e+01  6.8631013478540865e+01  6.5485205376286032e+01  7.3759577580055293e+01  6.6068498456893082e+01  7.3499932774459609e+01  7.3684582050802732e+01  6.1442626887187281e+01  6.1346721683194730e+01  7.4147146851916077e+01  7.4160423886389680e+01  7.1414493565893196e+01  6.5605619498830052e+01  6.5519486405556307e+01  6.5925605840588645e+01  6.5567971211704474e+01  6.5030309977373236e+01  6.6792081692011266e+01  6.1090560512941188e+01  6.4555326840284110e+01  6.6164539647032043e+01  7.2068116403743900e+01  7.1087221148001817e+01  6.6149874032050931e+01  6.4914119127307089e+01  6.4630246656303640e+01  6.5367661624620368e+01  6.3033267150012485e+01  7.1819563803314551e+01  7.0448250356256281e+01  6.8658428799899085e+01  6.8925594446371292e+01  6.8808113102717314e+01  7.2239254917641105e+01  6.0934739003094066e+01  7.4624009483368539e+01  7.4561982430245223e+01  7.4568293938584233e+01  6.1009014364151014e+01  6.0890807712498827e+01  6.2114196128615021e+01  6.8183125159951302e+01  6.2377703209230837e+01  6.9473064791843314e+01  6.3210113121546179e+01  6.5900767965651568e+01  6.5874288151939183e+01  6.8678619159757332e+01  6.8705449912755256e+01  6.8693768388619134e+01  6.4681016136674643e+01  7.4676677967533848e+01  6.8713364269305856e+01  6.5839572475178784e+01  6.1514315703016337e+01  6.9811726418996017e+01  6.5003506657467312e+01  6.9264726388423838e+01  7.2198669147890371e+01  6.8670461617188892e+01  6.5978186301261530e+01  6.8643795711104033e+01  6.3934717213209851e+01  6.2579090842450228e+01  6.2594306263646899e+01  6.2233215022884821e+01  7.2982522065836804e+01  6.4842907075984883e+01  7.4088139826805033e+01  6.2373747963204281e+01  6.8575780918567929e+01  6.6050059660196041e+01  6.9091779272175046e+01  6.9772134288870191e+01  6.0971194832722816e+01  6.5151616845417720e+01  7.4070214624064775e+01  6.2733364805307517e+01  6.5755340481877170e+01  6.3570937122578542e+01  7.1764399709105206e+01  6.7568801614211679e+01  6.4598672660268065e+01  6.5064011379107711e+01  6.4385669369766987e+01  6.5921612492936205e+01  7.3058876677078899e+01  7.0709027618309122e+01  6.7064493627398264e+01  6.6324740493049575e+01  6.6126996681636385e+01  6.6517482268213527e+01  6.6566901746380211e+01  6.4788291137067020e+01  6.8308850726266542e+01  6.8605110562438810e+01  6.7222826878586972e+01  6.5979020570818065e+01  6.8642387817732569e+01  6.6065689144088097e+01  7.2341163163022642e+01  6.8385592156064462e+01  7.0368962050900350e+01  7.0326572973036647e+01  7.0536211489501554e+01  6.6394598493302723e+01  6.5902996694309635e+01  6.3079712976852129e+01  6.3085621795755827e+01  6.2920432262589500e+01  6.7077947305633373e+01  6.1333093628411746e+01  6.5972697688766445e+01  6.7617355800969051e+01  7.4102308321763559e+01  7.4277827546416404e+01  7.3449590995232398e+01  6.7508277456479917e+01  6.7591989894152718e+01  6.7306417340381770e+01  6.5950403704248600e+01  6.4026868597599645e+01  7.3171742437379464e+01  7.1766932741080325e+01  6.1366484222312344e+01  7.0533667196418477e+01  7.0852338081013130e+01  6.6197353154899488e+01  7.2945000191235181e+01  6.3475012634367658e+01  7.0946449472857083e+01  6.3337267596836867e+01  7.1004304798439094e+01  6.5786848506139151e+01  6.6010621726878782e+01  6.4248371131294348e+01  7.1957426481880930e+01  6.4155233360738563e+01  6.3253837368927968e+01  6.6348729618964242e+01  6.6024880360104618e+01  7.1962591098950540e+01  6.4891645330632301e+01  6.7538950331079207e+01  7.0197113910287854e+01  6.7532691750449530e+01  6.4251935000166341e+01  7.0878727157736080e+01  6.0890887016520601e+01  7.4651532343614349e+01  7.054