<?xml version="1.0"?>
<VTKFile type="UnstructuredGrid"  version="0.1"  >
<UnstructuredGrid>
<Piece  NumberOfPoints="2331" NumberOfCells="4248">
<Points>
<DataArray  type="Float64"  NumberOfComponents="3"  format="ascii">0 0.3 0  0 0 0  0.04999999999999999 0 0  0.0514582251803892 0.02410733605106462 0  0.0558116365147896 0.04786313285751154 0  0.06299675146291706 0.07092097740850717 0  0.07290879486935808 0.09294463440875382 0  0.08540322682126872 0.1136129493462312 0  0.1002978503657798 0.132624531648159 0  0.117375468351841 0.1497021496342203 0  0.1363870506537689 0.1645967731787313 0  0.1570553655912463 0.177091205130642 0  0.1790790225914929 0.187003248537083 0  0.2021368671424885 0.1941883634852104 0  0.2258926639489354 0.1985417748196108 0  0.25 0.2 0  0.2741073360510646 0.1985417748196108 0  0.2978631328575116 0.1941883634852104 0  0.3209209774085071 0.187003248537083 0  0.3429446344087537 0.177091205130642 0  0.3636129493462312 0.1645967731787313 0  0.3826245316481591 0.1497021496342202 0  0.3997021496342202 0.132624531648159 0  0.4145967731787313 0.1136129493462312 0  0.427091205130642 0.09294463440875371 0  0.4370032485370829 0.07092097740850713 0  0.4441883634852104 0.04786313285751155 0  0.4485417748196108 0.02410733605106461 0  0.45 0 0  0.55 0 0  0.5514582251803892 0.02410733605106462 0  0.5558116365147896 0.04786313285751154 0  0.5629967514629171 0.07092097740850717 0  0.5729087948693581 0.09294463440875382 0  0.5854032268212688 0.1136129493462312 0  0.6002978503657798 0.132624531648159 0  0.617375468351841 0.1497021496342203 0  0.6363870506537689 0.1645967731787313 0  0.6570553655912463 0.177091205130642 0  0.6790790225914929 0.187003248537083 0  0.7021368671424885 0.1941883634852104 0  0.7258926639489354 0.1985417748196108 0  0.75 0.2 0  0.7741073360510646 0.1985417748196108 0  0.7978631328575116 0.1941883634852104 0  0.8209209774085071 0.187003248537083 0  0.8429446344087537 0.177091205130642 0  0.8636129493462312 0.1645967731787313 0  0.8826245316481591 0.1497021496342202 0  0.8997021496342202 0.132624531648159 0  0.9145967731787312 0.1136129493462312 0  0.927091205130642 0.09294463440875371 0  0.9370032485370829 0.07092097740850713 0  0.9441883634852104 0.04786313285751155 0  0.9485417748196108 0.02410733605106461 0  0.95 0 0  1 0 0  1 0.3 0  0.9758926639489353 0.3014582251803892 0  0.9521368671424885 0.3058116365147896 0  0.9290790225914928 0.3129967514629171 0  0.9070553655912461 0.3229087948693581 0  0.8863870506537688 0.3354032268212687 0  0.867375468351841 0.3502978503657798 0  0.8502978503657798 0.367375468351841 0  0.8354032268212687 0.3863870506537689 0  0.822908794869358 0.4070553655912464 0  0.8129967514629171 0.4290790225914929 0  0.8058116365147896 0.4521368671424885 0  0.8014582251803892 0.4758926639489354 0  0.8 0.4999999999999999 0  0.8014582251803892 0.5241073360510646 0  0.8058116365147896 0.5478631328575115 0  0.8129967514629171 0.5709209774085071 0  0.8229087948693581 0.5929446344087538 0  0.8354032268212688 0.6136129493462312 0  0.8502978503657798 0.632624531648159 0  0.867375468351841 0.6497021496342202 0  0.8863870506537689 0.6645967731787313 0  0.9070553655912463 0.677091205130642 0  0.9290790225914929 0.6870032485370829 0  0.9521368671424885 0.6941883634852104 0  0.9758926639489354 0.6985417748196108 0  1 0.7 0  1 1 0  0.95 1 0  0.9485417748196108 0.9758926639489353 0  0.9441883634852104 0.9521368671424885 0  0.9370032485370829 0.9290790225914928 0  0.927091205130642 0.9070553655912463 0  0.9145967731787312 0.8863870506537688 0  0.8997021496342201 0.8673754683518409 0  0.882624531648159 0.8502978503657798 0  0.863612949346231 0.8354032268212686 0  0.8429446344087537 0.822908794869358 0  0.8209209774085071 0.8129967514629171 0  0.7978631328575114 0.8058116365147896 0  0.7741073360510646 0.8014582251803892 0  0.75 0.8 0  0.7258926639489353 0.8014582251803892 0  0.7021368671424885 0.8058116365147896 0  0.6790790225914928 0.8129967514629171 0  0.6570553655912461 0.8229087948693581 0  0.6363870506537688 0.8354032268212688 0  0.617375468351841 0.8502978503657798 0  0.6002978503657798 0.867375468351841 0  0.5854032268212687 0.8863870506537689 0  0.572908794869358 0.9070553655912463 0  0.5629967514629171 0.9290790225914929 0  0.5558116365147896 0.9521368671424885 0  0.5514582251803892 0.9758926639489355 0  0.55 0.9999999999999999 0  0.45 0.9999999999999999 0  0.4485417748196108 0.9758926639489353 0  0.4441883634852104 0.9521368671424885 0  0.4370032485370829 0.9290790225914928 0  0.427091205130642 0.9070553655912463 0  0.4145967731787313 0.8863870506537688 0  0.3997021496342201 0.8673754683518409 0  0.382624531648159 0.8502978503657798 0  0.363612949346231 0.8354032268212686 0  0.3429446344087536 0.822908794869358 0  0.3209209774085071 0.8129967514629171 0  0.2978631328575115 0.8058116365147896 0  0.2741073360510646 0.8014582251803892 0  0.25 0.8 0  0.2258926639489353 0.8014582251803892 0  0.2021368671424885 0.8058116365147896 0  0.1790790225914928 0.8129967514629171 0  0.1570553655912462 0.8229087948693581 0  0.1363870506537688 0.8354032268212688 0  0.117375468351841 0.8502978503657798 0  0.1002978503657797 0.867375468351841 0  0.08540322682126869 0.8863870506537689 0  0.07290879486935797 0.9070553655912463 0  0.06299675146291703 0.9290790225914929 0  0.05581163651478957 0.9521368671424885 0  0.0514582251803892 0.9758926639489355 0  0.04999999999999999 0.9999999999999999 0  0 1 0  -0 0.7000000000000001 0  0.0241073360510646 0.6985417748196108 0  0.04786313285751161 0.6941883634852104 0  0.07092097740850711 0.6870032485370829 0  0.09294463440875372 0.677091205130642 0  0.1136129493462312 0.6645967731787312 0  0.1326245316481591 0.6497021496342202 0  0.1497021496342202 0.632624531648159 0  0.1645967731787313 0.6136129493462312 0  0.177091205130642 0.5929446344087537 0  0.187003248537083 0.5709209774085071 0  0.1941883634852104 0.5478631328575115 0  0.1985417748196108 0.5241073360510646 0  0.2 0.5 0  0.1985417748196108 0.4758926639489353 0  0.1941883634852104 0.4521368671424885 0  0.1870032485370829 0.4290790225914928 0  0.177091205130642 0.4070553655912463 0  0.1645967731787313 0.3863870506537688 0  0.1497021496342202 0.3673754683518409 0  0.132624531648159 0.3502978503657798 0  0.113612949346231 0.3354032268212686 0  0.09294463440875361 0.322908794869358 0  0.07092097740850711 0.3129967514629171 0  0.04786313285751148 0.3058116365147896 0  0.02410733605106464 0.3014582251803892 0  0.6985417748196108 0.5241073360510646 0  0.7 0.5 0  0.6985417748196108 0.4758926639489353 0  0.6941883634852104 0.4521368671424885 0  0.6870032485370829 0.4290790225914928 0  0.677091205130642 0.4070553655912463 0  0.6645967731787312 0.3863870506537688 0  0.6497021496342201 0.3673754683518409 0  0.632624531648159 0.3502978503657798 0  0.613612949346231 0.3354032268212686 0  0.5929446344087537 0.322908794869358 0  0.5709209774085071 0.3129967514629171 0  0.5478631328575114 0.3058116365147896 0  0.5241073360510646 0.3014582251803892 0  0.4999999999999999 0.3 0  0.4758926639489353 0.3014582251803892 0  0.4521368671424885 0.3058116365147896 0  0.4290790225914928 0.3129967514629171 0  0.4070553655912462 0.3229087948693581 0  0.3863870506537688 0.3354032268212687 0  0.367375468351841 0.3502978503657798 0  0.3502978503657798 0.367375468351841 0  0.3354032268212687 0.3863870506537689 0  0.322908794869358 0.4070553655912464 0  0.3129967514629171 0.4290790225914929 0  0.3058116365147896 0.4521368671424885 0  0.3014582251803892 0.4758926639489354 0  0.3 0.4999999999999999 0  0.3014582251803892 0.5241073360510646 0  0.3058116365147896 0.5478631328575115 0  0.3129967514629171 0.5709209774085071 0  0.3229087948693581 0.5929446344087538 0  0.3354032268212687 0.6136129493462312 0  0.3502978503657798 0.632624531648159 0  0.367375468351841 0.6497021496342202 0  0.3863870506537689 0.6645967731787313 0  0.4070553655912463 0.677091205130642 0  0.4290790225914929 0.6870032485370829 0  0.4521368671424885 0.6941883634852104 0  0.4758926639489354 0.6985417748196108 0  0.4999999999999999 0.7 0  0.5241073360510646 0.6985417748196108 0  0.5478631328575116 0.6941883634852104 0  0.5709209774085071 0.6870032485370829 0  0.5929446344087537 0.677091205130642 0  0.6136129493462312 0.6645967731787312 0  0.6326245316481591 0.6497021496342202 0  0.6497021496342202 0.632624531648159 0  0.6645967731787312 0.6136129493462312 0  0.677091205130642 0.5929446344087537 0  0.6870032485370829 0.5709209774085071 0  0.6941883634852104 0.5478631328575115 0  0 0.15 0  1 0.15 0  1 0.85 0  0 0.8500000000000001 0  0 0.075 0  1 0.075 0  1 0.925 0  0 0.925 0  0.5 0.8127595604293815 0  0.5069440078039168 0.190422209288238 0  0.25 0.3127595604293815 0  0.756944007803917 0.3095777907117619 0  0.756944007803917 0.6904222092882382 0  0.25 0.6872404395706185 0  0 0.225 0  0.4255768646051012 0.2241073097134061 0  1 0.7749999999999999 0  0.6773391559270888 0.2766774022734219 0  1 0.225 0  0.6755768646051011 0.7241073097134062 0  0 0.7750000000000001 0  0.5818971135297744 0.2287925518358889 0  0.8318971135297746 0.728792551835889 0  0.1659156081861886 0.7301636995921477 0  0.08376842746533225 0.2299656297760495 0  0.4236002201977974 0.7746535834185855 0  0.0840843918138115 0.7698363004078523 0  0.3340843918138113 0.7301636995921477 0  0.3340843918138114 0.2698363004078523 0  0.9159156081861887 0.2301636995921477 0  0.5840843918138116 0.7698363004078522 0  0.1659156081861887 0.2698363004078523 0  0.9162315725346678 0.7700343702239506 0  0.8340843918138114 0.2698363004078523 0  0.75 0.6146645247768686 0  0.5 0.1125158665330878 0  0.75 0.3874841334669124 0  0.2504983345544904 0.6122915843562002 0  0.2504983345544902 0.3877084156437999 0  0.5 0.8879783056303169 0  0.7005361650220154 0.3333055947145943 0  0.70416808765371 0.6599554817221275 0  0.449930214263529 0.1678187287522426 0  0.2247310981387008 0.7415600637745463 0  0.5155081196221678 0.7563797802146907 0  0.2752689018612993 0.2584399362254537 0  0.05605196690611226 0.8246131191226815 0  0.9439480330938878 0.1
[...]
<PointData  Scalars="Temperature"> 
<DataArray  type="Float64"  Name="Temperature"  format="ascii">7.2398092090777155e+01  7.2961816305636248e+01  7.2960890504852770e+01  7.2948124939392585e+01  7.2912419646325148e+01  7.2856866399184156e+01  7.2782505475954835e+01  7.2690059791439268e+01  7.2580389380190937e+01  7.2451886215834321e+01  7.2300986126921686e+01  7.2129555565525919e+01  7.1942844951286858e+01  7.1745301195404380e+01  7.1541470122129169e+01  7.1336755787076655e+01  7.1131623630476341e+01  7.0924907869888898e+01  7.0720028152990039e+01  7.0515127813204558e+01  7.0320064718982351e+01  7.0141752078661682e+01  6.9987761516575091e+01  6.9868851798711148e+01  6.9784205953455938e+01  6.9732672210495195e+01  6.9704987205829383e+01  6.9694085640071975e+01  6.9691474168491709e+01  6.9652268944262687e+01  6.9640861157085752e+01  6.9605498434607981e+01  6.9539398513480691e+01  6.9436862614251666e+01  6.9288920721620769e+01  6.9095017853791433e+01  6.8858303876186142e+01  6.8586683420871481e+01  6.8292330753964592e+01  6.7992582576126779e+01  6.7705097779872688e+01  6.7444641279732494e+01  6.7220348833732629e+01  6.7034854199416031e+01  6.6885631186620074e+01  6.6769552007479646e+01  6.6678114395165821e+01  6.6606522700113857e+01  6.6550410946165357e+01  6.6505413399000147e+01  6.6469385973866707e+01  6.6440092248786200e+01  6.6417013801446430e+01  6.6399910457033442e+01  6.6388940403361843e+01  6.6385027096434655e+01  6.6384705862254378e+01  6.6531719611619209e+01  6.6537138307865263e+01  6.6552264076087425e+01  6.6573521526992636e+01  6.6594322368432060e+01  6.6605555854993710e+01  6.6595105955537122e+01  6.6550024719139188e+01  6.6460536314167442e+01  6.6321977553668646e+01  6.6124723987285407e+01  6.5879742357254258e+01  6.5597678450975891e+01  6.5296265975375377e+01  6.4995635517483748e+01  6.4712850206864971e+01  6.4451027936796450e+01  6.4213526202055235e+01  6.3991835806816717e+01  6.3782863873993882e+01  6.3587342128352539e+01  6.3402630358914735e+01  6.3237071160918426e+01  6.3096656635065550e+01  6.2990216895524469e+01  6.2924507014804874e+01  6.2901456602674251e+01  6.2395838595798168e+01  6.2396611683013134e+01  6.2407997984175779e+01  6.2439929146054631e+01  6.2489605946585485e+01  6.2556258299657451e+01  6.2638993193555955e+01  6.2737767627831765e+01  6.2853885352728526e+01  6.2987896227287536e+01  6.3140977556861756e+01  6.3310045971584564e+01  6.3488478586305654e+01  6.3674145024715969e+01  6.3858750677620257e+01  6.4046254173786124e+01  6.4234574978559991e+01  6.4423615836129272e+01  6.4610523268147404e+01  6.4791617175488909e+01  6.4954462817545121e+01  6.5096585728925845e+01  6.5205238278403840e+01  6.5283620109868366e+01  6.5330419036481956e+01  6.5354018066196488e+01  6.5363995507515185e+01  6.5366231327767082e+01  6.5402713448102332e+01  6.5414404866355653e+01  6.5448824969387445e+01  6.5510999301983844e+01  6.5608205362631182e+01  6.5749473909243292e+01  6.5933250754526185e+01  6.6159155571608508e+01  6.6416061186121055e+01  6.6695784383780506e+01  6.6978627701366818e+01  6.7247437506054112e+01  6.7491619960433127e+01  6.7697101855454875e+01  6.7864716582714109e+01  6.7993944751728264e+01  6.8091802756383558e+01  6.8164636848157500e+01  6.8219220902955456e+01  6.8260662423592734e+01  6.8292459645533768e+01  6.8317061023512892e+01  6.8336785115682503e+01  6.8351995851713284e+01  6.8363337567854259e+01  6.8370266331981639e+01  6.8372878175669371e+01  6.8372960880418418e+01  6.8285771015574511e+01  6.8282694095978286e+01  6.8274699148959812e+01  6.8265085656101959e+01  6.8259458260803314e+01  6.8266379318104399e+01  6.8296573816075465e+01  6.8361244547850774e+01  6.8472124819464540e+01  6.8634417564156792e+01  6.8853136418792744e+01  6.9122414808118194e+01  6.9431872161797273e+01  6.9760060349999449e+01  7.0088078710948466e+01  7.0398956347280674e+01  7.0684794389601024e+01  7.0945704087384499e+01  7.1189477103116133e+01  7.1419680176659668e+01  7.1638019270674775e+01  7.1840590646068151e+01  7.2024010873814234e+01  7.2180302854936741e+01  7.2297445147514608e+01  7.2372020979574572e+01  6.5030342550887937e+01  6.5323223603247357e+01  6.5635420149932159e+01  6.5952028220029518e+01  6.6264118238462530e+01  6.6570166268765007e+01  6.6876031205080551e+01  6.7189191009683384e+01  6.7515431901759840e+01  6.7848739685119696e+01  6.8186804776038514e+01  6.8525559555286733e+01  6.8853259050269713e+01  6.9166583038012178e+01  6.9462737287279992e+01  6.9739568421502952e+01  6.9994348534247280e+01  7.0226649645185631e+01  7.0430155132049407e+01  7.0598481224240132e+01  7.0716809686529302e+01  7.0779060081282793e+01  7.0774010786480517e+01  7.0698166890684604e+01  7.0546298725399993e+01  7.0328116453654843e+01  7.0051880843710165e+01  6.9733764837187763e+01  6.9396550933960683e+01  6.9057858216004988e+01  6.8729888789709761e+01  6.8406546688079302e+01  6.8092422037977514e+01  6.7778708250100578e+01  6.7458721875239277e+01  6.7135004551909674e+01  6.6805075859078300e+01  6.6483066621533951e+01  6.6168970590694727e+01  6.5873200810325386e+01  6.5594185286855762e+01  6.5334675861839472e+01  6.5094411073946674e+01  6.4879191154299534e+01  6.4689303586747570e+01  6.4534192539016018e+01  6.4424256632576601e+01  6.4365634170197779e+01  6.4369190942623064e+01  6.4439534891550124e+01  6.4577635610362890e+01  6.4778257569993201e+01  7.2690292675955789e+01  6.6464617384758995e+01  6.2638190131179954e+01  6.8321651676752623e+01  7.2878730189204674e+01  6.6410008631739061e+01  6.2470078849087535e+01  6.8356691215133992e+01  6.5516885322454613e+01  6.9487662407450074e+01  7.1179429267914500e+01  6.6908985996021528e+01  6.3961517578782292e+01  6.8007569232186441e+01  7.2498305950105305e+01  7.0078335362197336e+01  6.2810342526772935e+01  6.7612389489437177e+01  6.6511946049724017e+01  6.4319501751401035e+01  6.8294429777642591e+01  6.8760902443734395e+01  6.3463058288993615e+01  6.8147502357725216e+01  7.2326744726616667e+01  6.6192420914355083e+01  6.8256182075417883e+01  6.7217327486597725e+01  7.0769858768323758e+01  6.6567667809617149e+01  6.4942505248470141e+01  7.1791135352517713e+01  6.2964539812204102e+01  6.6728590942052293e+01  6.4297231849921914e+01  6.9611314129099370e+01  6.6452200182626612e+01  6.8513212779052864e+01  7.0835416629457654e+01  6.5444058469916101e+01  6.7089168954322872e+01  6.4238152243631490e+01  6.9844962074172386e+01  6.7924886388056052e+01  6.5436647064487602e+01  7.1133197608157985e+01  6.8295316139917318e+01  6.6504167535302884e+01  7.2562980292495581e+01  6.2763634917947179e+01  6.9628211556439837e+01  6.4006241260745043e+01  6.7245968160459299e+01  6.5840492035030834e+01  6.8229598753252475e+01  7.1434428753532941e+01  6.7741244923091756e+01  7.0897335377184106e+01  6.5175526480139396e+01  6.9655407798460274e+01  6.5929735754169499e+01  6.4825634434794964e+01  7.0377928691232668e+01  6.9193412599761189e+01  6.5384030132390265e+01  6.5401314689644906e+01  7.1467238182844113e+01  6.7629095148560381e+01  6.9134961304709790e+01  6.3966408862468811e+01  6.6674691842378039e+01  6.8184901538509848e+01  7.0406954143458279e+01  7.0522982921620198e+01  6.4579830280912660e+01  6.4687384816712225e+01  6.8066930767371417e+01  6.3725016370449161e+01  6.6941844251800262e+01  6.5373998010743165e+01  6.9672156735156008e+01  6.9815576406669379e+01  6.6696053220504055e+01  6.6766808955090383e+01  6.9207418553505661e+01  6.3178881984850214e+01  6.3209474992152437e+01  6.5783762306620275e+01  7.2126717267400451e+01  6.8281273737006217e+01  6.6599481546919947e+01  6.8183069583486130e+01  7.2031386261138707e+01  6.8232987923909278e+01  6.6535562638059275e+01  6.6663185756699207e+01  6.2915857509164624e+01  7.2380343614455796e+01  6.6459581828997116e+01  6.2603457722886958e+01  7.2729940044637203e+01  6.8324304070958661e+01  6.6523586363685851e+01  6.3730633151099077e+01  6.9398227420229063e+01  6.4134995233575211e+01  6.4913175332129725e+01  6.7315887978803971e+01  7.1738820318625727e+01  6.6561881772959993e+01  7.0713363934871495e+01  6.8237429336342558e+01  6.8254429395493659e+01  7.2398220045110435e+01  6.2917788220996187e+01  6.8426158639149520e+01  7.1111125428077372e+01  6.5369810096767878e+01  6.3533140636628836e+01  7.0960147638760660e+01  6.8133699440847181e+01  6.7632693241847008e+01  6.7583727008337476e+01  6.6254148514948355e+01  6.9979498109571949e+01  6.4427890000669635e+01  7.0187840537575028e+01  6.4303171783458282e+01  6.5631754926679477e+01  6.6091848913039485e+01  6.8701743109846788e+01  6.7220473166331914e+01  6.3484854997515932e+01  6.8604964787493500e+01  6.8039300103946232e+01  7.0821369013749703e+01  6.7278602377548651e+01  7.1734465438566147e+01  6.6644195818338588e+01  6.4984012341883442e+01  6.9757654609338843e+01  7.2482287090515655e+01  6.6791995513982641e+01  6.6523301509626080e+01  6.8285713099694888e+01  6.5296923097492254e+01  6.8305976064157434e+01  6.6490917610175643e+01  6.6814865801741391e+01  6.2723453886958836e+01  6.9761929209257374e+01  6.6779349923695690e+01  6.6701515736133146e+01  6.9632647816015933e+01  7.2590122582846959e+01  6.4486171587976074e+01  6.4447466312533606e+01  6.4097951040881895e+01  6.8841657392602244e+01  7.0803338740695480e+01  6.8244187468379920e+01  7.0799360557237989e+01  6.8263465000823416e+01  6.9694074649214514e+01  6.9573583046841279e+01  6.6185531925332796e+01  6.6310872060911208e+01  6.5286224518210986e+01  6.5366026267375901e+01  6.5504322700360248e+01  6.2728854927298102e+01  6.8288015913551078e+01  6.2548988309176217e+01  6.6525580812314445e+01  7.2427643206487815e+01  6.6391430533170791e+01  7.2939890717725518e+01  6.6436095071981171e+01  6.6426632200476519e+01  7.2790700526979805e+01  6.2415370825527638e+01  6.8368622410422660e+01  6.2873923637205777e+01  6.8339901833520315e+01  6.8345619398187168e+01  7.0602992026665845e+01  6.8782099433285708e+01  6.8065615083557844e+01  7.0967540414803736e+01  6.5602635937169907e+01  6.3049881633389170e+01  6.7631562065344184e+01  7.1426269494969759e+01  6.3805475131503400e+01  6.4191385933558365e+01  6.5727497180084427e+01  6.2832325878690426e+01  6.5164530736222062e+01  6.9322006191486523e+01  6.8244715775719200e+01  7.1106854443892786e+01  7.2024950222350938e+01  6.8432161988530652e+01  6.9385824754840684e+01  6.7004232128830694e+01  6.6705497244296524e+01  6.5257580266854305e+01  6.4283063455144784e+01  6.4344749831064860e+01  6.2515598784195404e+01  7.2827725314185827e+01  7.2230030708777420e+01  6.3762387265760893e+01  6.7768925505383919e+01  7.1388883517134246e+01  6.6653851613100684e+01  6.9072918873176960e+01  6.4285431850118655e+01  6.6563169097959914e+01  6.7019034818752900e+01  7.0296722150647085e+01  6.4491680571235378e+01  6.6403850681041547e+01  7.2909817068354954e+01  6.6404923544439853e+01  6.2442460904264742e+01  6.8362556439185582e+01  6.6546677122039057e+01  6.4667204142533421e+01  6.9866447307749667e+01  6.8302406233536985e+01  6.8310378893635900e+01  6.6491616772404470e+01  6.6482474256346507e+01  6.6949118920703967e+01  7.2537892159190577e+01  7.2449680500076951e+01  7.2627407371300151e+01  7.0008734354174422e+01  6.9948041416490355e+01  7.2258215964684794e+01  6.5742426314502339e+01  6.8247677394703814e+01  6.8201120155906594e+01  6.6625287677630766e+01  6.7376472775850189e+01  6.7099171363800465e+01  7.0400692025715088e+01  6.4589901442326806e+01  6.2677406757601666e+01  6.4326379230074650e+01  6.4113270513266883e+01  6.8900627466577546e+01  6.5370993096854406e+01  6.6610932549450311e+01  6.9681751946796737e+01  6.9653518205091984e+01  6.5652126357995400e+01  6.5799507087708008e+01  7.0104130626107391e+01  7.0252679826231088e+01  6.7428850684964218e+01  6.3344890733103810e+01  6.5417890460052234e+01  6.8138626363330147e+01  7.0938773254579942e+01  6.6992139863222022e+01  7.1587689214685128e+01  6.7514610632384176e+01  6.7826916064296952e+01  6.8065084360708482e+01  7.1051841671253555e+01  7.1256301228187723e+01  6.7901526948843994e+01  6.5053203943257643e+01  6.5169281932187090e+01  7.1024991480480779e+01  6.8175673707705485e+01  7.0825629462262654e+01  7.1519458533408539e+01  6.7640488525733531e+01  6.8354522859463827e+01  6.5340234081128102e+01  6.5094415156901377e+01  6.5144514982542276e+01  6.9566772092953883e+01  6.9505941273026934e+01  7.1949619451183011e+01  6.4184840672776062e+01  6.4099843665443800e+01  6.3985399822649924e+01  7.0222840678678011e+01  6.4472343941755540e+01  6.5496936956990069e+01  7.0195219954740310e+01  6.5819818253348870e+01  6.5975592223896115e+01  6.7005452766300579e+01  6.9608602901314569e+01  6.9553775647561551e+01  6.7407651787446810e+01  6.7853236668205511e+01  6.2855186051055327e+01  7.2218352377179130e+01  6.6546379493573852e+01  6.9197958032621230e+01  6.3225755168182886e+01  6.3059556793492433e+01  6.6777360029811248e+01  6.6711698981887238e+01  6.6712239772351822e+01  6.8114184038680222e+01  7.0524879617212619e+01  7.0627516620565174e+01  6.4715527054852174e+01  6.4785596916772121e+01  6.6544100549345316e+01  6.8863490998584069e+01  6.9522926660989498e+01  6.8488776874362188e+01  6.6612913176184222e+01  6.4495059960208863e+01  6.6540778416519217e+01  6.8275093326804068e+01  6.9031768612389030e+01  6.2396229893003202e+01  6.6384856836160239e+01  7.2961426953517275e+01  6.8372948321509639e+01  6.9671894555062494e+01  6.8358484347496926e+01  7.0599600312629633e+01  6.6045715916199555e+01  6.4421623072181916e+01  6.6631780925074125e+01  6.9617299045871903e+01  6.9690778447259731e+01  7.0634755945157792e+01  6.6915257586900765e+01  6.3370576896868371e+01  6.3256699782503603e+01  6.3100397308228068e+01  6.3345916299510193e+01  6.4805927248006611e+01  7.0646152371883687e+01  6.8635309364221811e+01  6.5387551881126399e+01  6.5371599079486501e+01  6.5423408707194966e+01  6.4703788921343246e+01  6.4728949391094616e+01  6.9184267796732698e+01  6.9093678766131092e+01  7.1886416569020284e+01  7.0827735116859841e+01  6.6479035233719671e+01  7.2185786406889648e+01  6.8150328534728544e+01  6.6987077728188254e+01  6.6216007533604497e+01  7.2455617305160544e+01  6.9880319825845305e+01  6.3990693158807240e+01  6.3942732832606943e+01  6.2811759253444997e+01  6.7990914036864666e+01  7.1647644526962694e+01  6.7426803568379228e+01  6.8136407687368674e+01  6.8196082840181006e+01  6.8225061901467882e+01  6.9926728461923844e+01  6.5478450728377709e+01  7.2639068168585140e+01  6.3027220184000164e+01  7.0541598670234322e+01  6.7878077504143590e+01  6.8297445428104083e+01  6.6501361427157576e+01  6.4143140053621309e+01  6.7346550189785290e+01  7.0773356540787020e+01  6.5028145484609055e+01  7.1316546003269664e+01  6.5932640949266869e+01  6.2853490812631350e+01  6.8254593164076525e+01  6.7890776094200874e+01  7.0373734216900118e+01  6.6592595949142236e+01  6.9635146052410278e+01  6.6391859019858529e+01  6.8369824704789878e+01  7.2946222225433516e+01  6.2409569324350045e+01  6.7764296544581782e+01  6.6600914544491559e+01  6.3179897312929910e+01  6.6713511965162056e+01  6.8208502721071824e+01  6.7844818605984599e+01  6.6563248555973175e+01  6.4850181360939942e+01  7.2311323788761726e+01  6.8276037691236979e+01  6.8248315595565501e+01  6.7936119315873725e+01  6.6821749283014199e+01  6.6743856468629701e+01  6.7070679037748789e+01  6.8279272446450037e+01  6.6542196037972545e+01  6.8289248539027938e+01  6.6350318160830795e+01  6.9297463574635103e+01  7.1234643555625254e+01  6.8561114070636691e+01  6.3624188205911260e+01  7.1280121849603987e+01  6.5494939739814612e+01  6.3566911161670241e+01  6.3861453198936069e+01  6.3853911523298692e+01  6.7129846383712348e+01  6.5462655965337021e+01  6.2905321390683554e+01  6.9520242973288333e+01  7.1612309737786646e+01  6.7386713307651789e+01  6.5532055402600491e+01  6.4380324213494973e+01  6.8473826987284866e+01  6.8228255373513008e+01  6.2768420961579778e+01  7.1100928975657681e+01  6.7918397393660499e+01  6.9658409051398635e+01  6.5396943693152082e+01  6.9685825512783268e+01  6.9435369596799688e+01  7.1842176626153758e+01  6.6530284814958719e+01  6.8281272485228257e+01  6.8268608048233730e+01  6.6544660567771643e+01  6.6519867144421994e+01  6.6519900101501122e+01  6.2815903739105316e+01  7.2557511794526263e+01  6.8418784072606968e+01  7.1001728951616556e+01  6.5364025835332129e+01  6.9419031688394838e+01  6.8977057349442816e+01  6.8171242565634302e+01  6.9847350230104695e+01  7.0770201821428472e+01  7.1319481744611551e+01  6.6609356976116402e+01  6.8333269858879177e+01  6.6453973450988912e+01  6.3400901528486457e+01  6.8283833780091754e+01  6.5955817915274963e+01  7.2111496131293393e+01  6.6586011291174799e+01  7.1924145534889675e+01  7.2059227773699106e+01  6.2976832888897356e+01  6.2904343498633608e+01  7.2394122899526337e+01  7.2403952821096354e+01  7.0431804965947691e+01  6.6042472243077313e+01  6.6112501198742365e+01  6.6432966474325994e+01  6.6015944726873244e+01  6.5620132099137493e+01  6.7095040869708328e+01  6.2710491133937659e+01  6.5268388856509603e+01  6.6455809664891675e+01  7.0878998927289587e+01  7.0128913663388218e+01  6.6614026246356431e+01  6.5648040948613072e+01  6.5321472435631676e+01  6.5868672676194009e+01  6.4178691769377608e+01  7.0686251361689827e+01  6.9749182046303034e+01  6.8296468141136287e+01  6.8504288562635267e+01  6.8417529496452090e+01  7.0995525732717596e+01  6.2592747864061153e+01  7.2741220298596687e+01  7.2696139383670655e+01  7.2700775489016948e+01  6.2648743359661069e+01  6.2559517622535878e+01  6.3485778288279562e+01  6.7947926071325625e+01  6.3680680917028383e+01  6.8916406535996657e+01  6.4326798689977991e+01  6.6481667907315426e+01  6.6464142096393999e+01  6.8311039437969796e+01  6.8330550074155127e+01  6.8322062087980598e+01  6.5357851225555194e+01  7.2779521166786054e+01  6.8336293423853206e+01  6.6441483797647550e+01  6.3030668477728803e+01  6.9287515622509162e+01  6.5596327855345322e+01  6.8886108674628019e+01  7.0968552279369177e+01  6.8315328402272229e+01  6.6529813696971544e+01  6.8286247474475658e+01  6.4887003918524158e+01  6.3837205761569969e+01  6.3845291780980133e+01  6.3573787677097734e+01  7.1550673299970740e+01  6.5479921032014872e+01  7.2352021083476714e+01  6.3681582477896818e+01  6.8236020942229104e+01  6.6581599221605288e+01  6.8630056250544428e+01  6.9257407361395067e+01  6.2620278625700251e+01  6.5706719430406949e+01  7.2338066490063881e+01  6.3939097479193101e+01  6.6386218962436047e+01  6.4554258574027756e+01  7.0680769710549242e+01  6.7494640684388784e+01  6.5404637549020407e+01  6.5644029268216514e+01  6.5146814465035774e+01  6.6418932095776626e+01  7.1600092803537990e+01  6.9844833366817255e+01  6.7121257909999969e+01  6.6723593877327275e+01  6.6613318551361289e+01  6.6890209091963300e+01  6.6908499734701095e+01  6.5438749998304289e+01  6.8040428024770080e+01  6.8261067146171840e+01  6.7240393393447732e+01  6.6530510888959753e+01  6.8285216093473949e+01  6.6587648620243996e+01  7.1077623613349630e+01  6.8102361897297740e+01  6.9691987677022084e+01  6.9660395375701825e+01  6.9809832055509034e+01  6.6817790031673937e+01  6.6263926181356027e+01  6.4204931254822924e+01  6.4203250177451878e+01  6.4081614311324017e+01  6.7288069580805214e+01  6.2893416980679724e+01  6.6529146715083428e+01  6.7686611282105659e+01  7.2361991400352721e+01  7.2489647198159886e+01  7.1888504823299215e+01  6.7614139669088274e+01  6.7513646689173214e+01  6.7301680693183442e+01  6.6458787092013679e+01  6.4883472479305269e+01  7.1681256438124677e+01  7.0675608124162210e+01  6.2918217257807314e+01  6.9802463511409343e+01  7.0031071224977936e+01  6.6672297277464324e+01  7.1520456223279723e+01  6.4489814897261610e+01  7.0100163568908513e+01  6.4387592387880076e+01  7.0142674246159402e+01  6.6176698865528621e+01  6.6341649777269382e+01  6.5045229071309663e+01  7.0819274227118356e+01  6.4980879509219292e+01  6.4320586554553557e+01  6.6747032526640780e+01  6.6500810755031679e+01  7.0813425422928532e+01  6.5513984604710927e+01  6.7633259980355248e+01  6.9459827916872058e+01  6.7621437610920268e+01  6.5134874537254916e+01  7.0048410137527469e+01  6.2559606779764302e+01  7.2761230546408299e+01  6.981