<?xml version="1.0"?>
<VTKFile type="UnstructuredGrid"  version="0.1"  >
<UnstructuredGrid>
<Piece  NumberOfPoints="2331" NumberOfCells="4248">
<Points>
<DataArray  type="Float64"  NumberOfComponents="3"  format="ascii">0 0.3 0  0 0 0  0.04999999999999999 0 0  0.0514582251803892 0.02410733605106462 0  0.0558116365147896 0.04786313285751154 0  0.06299675146291706 0.07092097740850717 0  0.07290879486935808 0.09294463440875382 0  0.08540322682126872 0.1136129493462312 0  0.1002978503657798 0.132624531648159 0  0.117375468351841 0.1497021496342203 0  0.1363870506537689 0.1645967731787313 0  0.1570553655912463 0.177091205130642 0  0.1790790225914929 0.187003248537083 0  0.2021368671424885 0.1941883634852104 0  0.2258926639489354 0.1985417748196108 0  0.25 0.2 0  0.2741073360510646 0.1985417748196108 0  0.2978631328575116 0.1941883634852104 0  0.3209209774085071 0.187003248537083 0  0.3429446344087537 0.177091205130642 0  0.3636129493462312 0.1645967731787313 0  0.3826245316481591 0.1497021496342202 0  0.3997021496342202 0.132624531648159 0  0.4145967731787313 0.1136129493462312 0  0.427091205130642 0.09294463440875371 0  0.4370032485370829 0.07092097740850713 0  0.4441883634852104 0.04786313285751155 0  0.4485417748196108 0.02410733605106461 0  0.45 0 0  0.55 0 0  0.5514582251803892 0.02410733605106462 0  0.5558116365147896 0.04786313285751154 0  0.5629967514629171 0.07092097740850717 0  0.5729087948693581 0.09294463440875382 0  0.5854032268212688 0.1136129493462312 0  0.6002978503657798 0.132624531648159 0  0.617375468351841 0.1497021496342203 0  0.6363870506537689 0.1645967731787313 0  0.6570553655912463 0.177091205130642 0  0.6790790225914929 0.187003248537083 0  0.7021368671424885 0.1941883634852104 0  0.7258926639489354 0.1985417748196108 0  0.75 0.2 0  0.7741073360510646 0.1985417748196108 0  0.7978631328575116 0.1941883634852104 0  0.8209209774085071 0.187003248537083 0  0.8429446344087537 0.177091205130642 0  0.8636129493462312 0.1645967731787313 0  0.8826245316481591 0.1497021496342202 0  0.8997021496342202 0.132624531648159 0  0.9145967731787312 0.1136129493462312 0  0.927091205130642 0.09294463440875371 0  0.9370032485370829 0.07092097740850713 0  0.9441883634852104 0.04786313285751155 0  0.9485417748196108 0.02410733605106461 0  0.95 0 0  1 0 0  1 0.3 0  0.9758926639489353 0.3014582251803892 0  0.9521368671424885 0.3058116365147896 0  0.9290790225914928 0.3129967514629171 0  0.9070553655912461 0.3229087948693581 0  0.8863870506537688 0.3354032268212687 0  0.867375468351841 0.3502978503657798 0  0.8502978503657798 0.367375468351841 0  0.8354032268212687 0.3863870506537689 0  0.822908794869358 0.4070553655912464 0  0.8129967514629171 0.4290790225914929 0  0.8058116365147896 0.4521368671424885 0  0.8014582251803892 0.4758926639489354 0  0.8 0.4999999999999999 0  0.8014582251803892 0.5241073360510646 0  0.8058116365147896 0.5478631328575115 0  0.8129967514629171 0.5709209774085071 0  0.8229087948693581 0.5929446344087538 0  0.8354032268212688 0.6136129493462312 0  0.8502978503657798 0.632624531648159 0  0.867375468351841 0.6497021496342202 0  0.8863870506537689 0.6645967731787313 0  0.9070553655912463 0.677091205130642 0  0.9290790225914929 0.6870032485370829 0  0.9521368671424885 0.6941883634852104 0  0.9758926639489354 0.6985417748196108 0  1 0.7 0  1 1 0  0.95 1 0  0.9485417748196108 0.9758926639489353 0  0.9441883634852104 0.9521368671424885 0  0.9370032485370829 0.9290790225914928 0  0.927091205130642 0.9070553655912463 0  0.9145967731787312 0.8863870506537688 0  0.8997021496342201 0.8673754683518409 0  0.882624531648159 0.8502978503657798 0  0.863612949346231 0.8354032268212686 0  0.8429446344087537 0.822908794869358 0  0.8209209774085071 0.8129967514629171 0  0.7978631328575114 0.8058116365147896 0  0.7741073360510646 0.8014582251803892 0  0.75 0.8 0  0.7258926639489353 0.8014582251803892 0  0.7021368671424885 0.8058116365147896 0  0.6790790225914928 0.8129967514629171 0  0.6570553655912461 0.8229087948693581 0  0.6363870506537688 0.8354032268212688 0  0.617375468351841 0.8502978503657798 0  0.6002978503657798 0.867375468351841 0  0.5854032268212687 0.8863870506537689 0  0.572908794869358 0.9070553655912463 0  0.5629967514629171 0.9290790225914929 0  0.5558116365147896 0.9521368671424885 0  0.5514582251803892 0.9758926639489355 0  0.55 0.9999999999999999 0  0.45 0.9999999999999999 0  0.4485417748196108 0.9758926639489353 0  0.4441883634852104 0.9521368671424885 0  0.4370032485370829 0.9290790225914928 0  0.427091205130642 0.9070553655912463 0  0.4145967731787313 0.8863870506537688 0  0.3997021496342201 0.8673754683518409 0  0.382624531648159 0.8502978503657798 0  0.363612949346231 0.8354032268212686 0  0.3429446344087536 0.822908794869358 0  0.3209209774085071 0.8129967514629171 0  0.2978631328575115 0.8058116365147896 0  0.2741073360510646 0.8014582251803892 0  0.25 0.8 0  0.2258926639489353 0.8014582251803892 0  0.2021368671424885 0.8058116365147896 0  0.1790790225914928 0.8129967514629171 0  0.1570553655912462 0.8229087948693581 0  0.1363870506537688 0.8354032268212688 0  0.117375468351841 0.8502978503657798 0  0.1002978503657797 0.867375468351841 0  0.08540322682126869 0.8863870506537689 0  0.07290879486935797 0.9070553655912463 0  0.06299675146291703 0.9290790225914929 0  0.05581163651478957 0.9521368671424885 0  0.0514582251803892 0.9758926639489355 0  0.04999999999999999 0.9999999999999999 0  0 1 0  -0 0.7000000000000001 0  0.0241073360510646 0.6985417748196108 0  0.04786313285751161 0.6941883634852104 0  0.07092097740850711 0.6870032485370829 0  0.09294463440875372 0.677091205130642 0  0.1136129493462312 0.6645967731787312 0  0.1326245316481591 0.6497021496342202 0  0.1497021496342202 0.632624531648159 0  0.1645967731787313 0.6136129493462312 0  0.177091205130642 0.5929446344087537 0  0.187003248537083 0.5709209774085071 0  0.1941883634852104 0.5478631328575115 0  0.1985417748196108 0.5241073360510646 0  0.2 0.5 0  0.1985417748196108 0.4758926639489353 0  0.1941883634852104 0.4521368671424885 0  0.1870032485370829 0.4290790225914928 0  0.177091205130642 0.4070553655912463 0  0.1645967731787313 0.3863870506537688 0  0.1497021496342202 0.3673754683518409 0  0.132624531648159 0.3502978503657798 0  0.113612949346231 0.3354032268212686 0  0.09294463440875361 0.322908794869358 0  0.07092097740850711 0.3129967514629171 0  0.04786313285751148 0.3058116365147896 0  0.02410733605106464 0.3014582251803892 0  0.6985417748196108 0.5241073360510646 0  0.7 0.5 0  0.6985417748196108 0.4758926639489353 0  0.6941883634852104 0.4521368671424885 0  0.6870032485370829 0.4290790225914928 0  0.677091205130642 0.4070553655912463 0  0.6645967731787312 0.3863870506537688 0  0.6497021496342201 0.3673754683518409 0  0.632624531648159 0.3502978503657798 0  0.613612949346231 0.3354032268212686 0  0.5929446344087537 0.322908794869358 0  0.5709209774085071 0.3129967514629171 0  0.5478631328575114 0.3058116365147896 0  0.5241073360510646 0.3014582251803892 0  0.4999999999999999 0.3 0  0.4758926639489353 0.3014582251803892 0  0.4521368671424885 0.3058116365147896 0  0.4290790225914928 0.3129967514629171 0  0.4070553655912462 0.3229087948693581 0  0.3863870506537688 0.3354032268212687 0  0.367375468351841 0.3502978503657798 0  0.3502978503657798 0.367375468351841 0  0.3354032268212687 0.3863870506537689 0  0.322908794869358 0.4070553655912464 0  0.3129967514629171 0.4290790225914929 0  0.3058116365147896 0.4521368671424885 0  0.3014582251803892 0.4758926639489354 0  0.3 0.4999999999999999 0  0.3014582251803892 0.5241073360510646 0  0.3058116365147896 0.5478631328575115 0  0.3129967514629171 0.5709209774085071 0  0.3229087948693581 0.5929446344087538 0  0.3354032268212687 0.6136129493462312 0  0.3502978503657798 0.632624531648159 0  0.367375468351841 0.6497021496342202 0  0.3863870506537689 0.6645967731787313 0  0.4070553655912463 0.677091205130642 0  0.4290790225914929 0.6870032485370829 0  0.4521368671424885 0.6941883634852104 0  0.4758926639489354 0.6985417748196108 0  0.4999999999999999 0.7 0  0.5241073360510646 0.6985417748196108 0  0.5478631328575116 0.6941883634852104 0  0.5709209774085071 0.6870032485370829 0  0.5929446344087537 0.677091205130642 0  0.6136129493462312 0.6645967731787312 0  0.6326245316481591 0.6497021496342202 0  0.6497021496342202 0.632624531648159 0  0.6645967731787312 0.6136129493462312 0  0.677091205130642 0.5929446344087537 0  0.6870032485370829 0.5709209774085071 0  0.6941883634852104 0.5478631328575115 0  0 0.15 0  1 0.15 0  1 0.85 0  0 0.8500000000000001 0  0 0.075 0  1 0.075 0  1 0.925 0  0 0.925 0  0.5 0.8127595604293815 0  0.5069440078039168 0.190422209288238 0  0.25 0.3127595604293815 0  0.756944007803917 0.3095777907117619 0  0.756944007803917 0.6904222092882382 0  0.25 0.6872404395706185 0  0 0.225 0  0.4255768646051012 0.2241073097134061 0  1 0.7749999999999999 0  0.6773391559270888 0.2766774022734219 0  1 0.225 0  0.6755768646051011 0.7241073097134062 0  0 0.7750000000000001 0  0.5818971135297744 0.2287925518358889 0  0.8318971135297746 0.728792551835889 0  0.1659156081861886 0.7301636995921477 0  0.08376842746533225 0.2299656297760495 0  0.4236002201977974 0.7746535834185855 0  0.0840843918138115 0.7698363004078523 0  0.3340843918138113 0.7301636995921477 0  0.3340843918138114 0.2698363004078523 0  0.9159156081861887 0.2301636995921477 0  0.5840843918138116 0.7698363004078522 0  0.1659156081861887 0.2698363004078523 0  0.9162315725346678 0.7700343702239506 0  0.8340843918138114 0.2698363004078523 0  0.75 0.6146645247768686 0  0.5 0.1125158665330878 0  0.75 0.3874841334669124 0  0.2504983345544904 0.6122915843562002 0  0.2504983345544902 0.3877084156437999 0  0.5 0.8879783056303169 0  0.7005361650220154 0.3333055947145943 0  0.70416808765371 0.6599554817221275 0  0.449930214263529 0.1678187287522426 0  0.2247310981387008 0.7415600637745463 0  0.5155081196221678 0.7563797802146907 0  0.2752689018612993 0.2584399362254537 0  0.05605196690611226 0.8246131191226815 0  0.9439480330938878 0.1
[...]
<PointData  Scalars="Temperature"> 
<DataArray  type="Float64"  Name="Temperature"  format="ascii">7.2829125349031173e+01  7.3444376047430666e+01  7.3443365217291543e+01  7.3429427773295203e+01  7.3390444909146808e+01  7.3329792554377107e+01  7.3248606667261484e+01  7.3147675191787982e+01  7.3027934103691734e+01  7.2887620258087622e+01  7.2722828704142430e+01  7.2535571902656258e+01  7.2331544737699090e+01  7.2115558252225242e+01  7.1892502502618285e+01  7.1668242321778322e+01  7.1443273150767780e+01  7.1216335808156785e+01  7.0991242934404625e+01  7.0766046607835321e+01  7.0551623165044049e+01  7.0355588153136225e+01  7.0186264596215793e+01  7.0055444709853376e+01  6.9962232526498170e+01  6.9905363860939872e+01  6.9874713305207564e+01  6.9862558086308681e+01  6.9859625842790450e+01  6.9816702171007819e+01  6.9804290146476049e+01  6.9765790239297132e+01  6.9693764792893973e+01  6.9581956160820610e+01  6.9420540446361841e+01  6.9208900193594502e+01  6.8950488594607378e+01  6.8653934791486790e+01  6.8332528861271385e+01  6.8005167866782358e+01  6.7691067764832596e+01  6.7406282781943787e+01  6.7160704530180354e+01  6.6957183359975275e+01  6.6793013116856116e+01  6.6664863919209367e+01  6.6563540719031238e+01  6.6483926336172900e+01  6.6421339492281533e+01  6.6371028844375033e+01  6.6330675090768381e+01  6.6297822264768442e+01  6.6271917686833731e+01  6.6252712466813421e+01  6.6240392068200777e+01  6.6235996776667761e+01  6.6235636306345015e+01  6.6401728574534616e+01  6.6407892983407351e+01  6.6425139516491441e+01  6.6449547757392949e+01  6.6473876256673591e+01  6.6488144374809394e+01  6.6479097354900361e+01  6.6432654055586070e+01  6.6338143070880903e+01  6.6190515050508424e+01  6.5979410319959669e+01  6.5716754772738213e+01  6.5414104828147444e+01  6.5090632641636276e+01  6.4768031561627012e+01  6.4464580378999671e+01  6.4183551230482493e+01  6.3928472025841458e+01  6.3690102262359105e+01  6.3465108436125618e+01  6.3254344570243724e+01  6.3055022569302665e+01  6.2876236874375415e+01  6.2724527896055669e+01  6.2609491261891996e+01  6.2538461975823900e+01  6.2513543441322390e+01  6.1966947798290960e+01  6.1967783840420381e+01  6.1980096218310159e+01  6.2014624840385572e+01  6.2068344265641969e+01  6.2140424470930327e+01  6.2229906280387063e+01  6.2336751928133040e+01  6.2462382945679408e+01  6.2607414339760496e+01  6.2773150104187899e+01  6.2956306207140152e+01  6.3149766704677845e+01  6.3351296684612613e+01  6.3551961344790982e+01  6.3756088083107514e+01  6.3961384992178878e+01  6.4167681970856336e+01  6.4371790103570774e+01  6.4569606073380754e+01  6.4747520067989299e+01  6.4902820441359296e+01  6.5021597020583641e+01  6.5107338540391240e+01  6.5158608482507432e+01  6.5184538542651879e+01  6.5195545899485992e+01  6.5198027791052013e+01  6.5237770846140933e+01  6.5250453491975691e+01  6.5287802164569726e+01  6.5355304788869446e+01  6.5460892740147727e+01  6.5614410762351568e+01  6.5814170595169458e+01  6.6059754415723148e+01  6.6339058285661068e+01  6.6643168400962921e+01  6.6950674130727364e+01  6.7242933785945226e+01  6.7508454768234017e+01  6.7731948686624278e+01  6.7914335679428618e+01  6.8055049403030154e+01  6.8161693008333685e+01  6.8241143265097534e+01  6.8300744829049776e+01  6.8346031941274290e+01  6.8380802347654296e+01  6.8407716568322257e+01  6.8429300669939309e+01  6.8445948091829408e+01  6.8458361405275355e+01  6.8465944690654709e+01  6.8468803222242016e+01  6.8468893676700560e+01  6.8373191527960330e+01  6.8369796259334436e+01  6.8360956767001227e+01  6.8350261718350012e+01  6.8343799761526626e+01  6.8350880109102434e+01  6.8383149135517527e+01  6.8452774425978106e+01  6.8572480457886670e+01  6.8747905294147799e+01  6.8984467057669107e+01  6.9275785156783357e+01  6.9610583921659455e+01  6.9965630102832975e+01  7.0320483202815481e+01  7.0656834794684386e+01  7.0966225523861937e+01  7.1248877969172028e+01  7.1513300772754349e+01  7.1763336224821202e+01  7.2000798162552428e+01  7.2221348265389238e+01  7.2421202040380820e+01  7.2591588591346678e+01  7.2719339633164751e+01  7.2800685181013762e+01  6.4805847616570603e+01  6.5120081808706516e+01  6.5455425998387383e+01  6.5795945148113518e+01  6.6132131522016266e+01  6.6462501887987472e+01  6.6793472630970612e+01  6.7133102297760487e+01  6.7487653098664211e+01  6.7850457198030966e+01  6.8218917702036663e+01  6.8588507925775488e+01  6.8946365869554057e+01  6.9288838513413836e+01  6.9612841694830010e+01  6.9916042260312963e+01  7.0195425903454577e+01  7.0450516858882025e+01  7.0674354735940511e+01  7.0859963663300746e+01  7.0991101968900935e+01  7.1061165165241505e+01  7.1057911358295158e+01  7.0977537759319276e+01  7.0814453584143308e+01  7.0579208282264148e+01  7.0280836714358784e+01  6.9936905269856936e+01  6.9572108561242331e+01  6.9205532060986400e+01  6.8850371254006390e+01  6.8500005343709702e+01  6.8159402558511843e+01  6.7819029331924412e+01  6.7471629708243825e+01  6.7119985060234072e+01  6.6761431205406964e+01  6.6411331984145505e+01  6.6069674737638493e+01  6.5747778954393084e+01  6.5443927831782815e+01  6.5161094634596552e+01  6.4898994477125640e+01  6.4663925464607090e+01  6.4456184890807776e+01  6.4286062369874188e+01  6.4164798764268554e+01  6.4099080087626206e+01  6.4100602268189135e+01  6.4174327267931602e+01  6.4321271048819852e+01  6.4535748483473697e+01  7.3147954751367450e+01  6.6325497720798822e+01  6.2228997089528846e+01  6.8412704647758275e+01  7.3353664379341836e+01  6.6264063177745783e+01  6.2047225078913435e+01  6.8451085181176637e+01  6.5360613285837815e+01  6.9638861718248535e+01  7.1498986436722731e+01  6.6824244266386756e+01  6.3660600215738889e+01  6.8068440149136691e+01  7.2938441431645202e+01  7.0286745396043031e+01  6.2415087391585807e+01  6.7591448292723896e+01  6.6379076922127254e+01  6.4052540038598323e+01  6.8382790272233052e+01  6.8844770722650992e+01  6.3121194136120963e+01  6.8221781436395531e+01  7.2751158826285419e+01  6.6095581705760139e+01  6.8340914350156424e+01  6.7209832711218993e+01  7.1047205309935251e+01  6.6441514100099397e+01  6.4733814059760775e+01  7.2166591372275079e+01  6.2581904227945813e+01  6.6622166519402228e+01  6.4019928333977418e+01  6.9772908856007874e+01  6.6332989548762910e+01  6.8616122930829647e+01  7.1127833022581171e+01  6.5282127179213688e+01  6.7023065775281395e+01  6.3960119918371689e+01  7.0029885376079562e+01  6.7979430637409052e+01  6.5272590482842361e+01  7.1445931248849448e+01  6.8383870855034843e+01  6.6369888122186268e+01  7.3008969463706435e+01  6.2364645454279021e+01  6.9793582386783484e+01  6.3711562110649268e+01  6.7190052495511026e+01  6.5713088607384037e+01  6.8309988241622634e+01  7.1778454632467117e+01  6.7778709380137585e+01  7.1189758419013899e+01  6.4988660090478291e+01  6.9820427520831288e+01  6.5771196792526979e+01  6.4585994161649452e+01  7.0633597219073593e+01  6.9352435169394056e+01  6.5217424622554447e+01  6.5236058200610884e+01  7.1812279598079243e+01  6.7657565136843814e+01  6.9252874924583480e+01  6.3663644635921095e+01  6.6567432127959890e+01  6.8215656687092974e+01  7.0648232264738624e+01  7.0775046620485696e+01  6.4337836762474325e+01  6.4454623179121882e+01  6.8087733798754812e+01  6.3405485390855681e+01  6.6856206450994705e+01  6.5174315927171406e+01  6.9838471556504430e+01  7.0025539827578726e+01  6.6643329087291221e+01  6.6719997330001519e+01  6.9332901621189890e+01  6.2813962472820634e+01  6.2846639107604872e+01  6.5650848193436573e+01  7.2533037146349088e+01  6.8368302717019944e+01  6.6478303950022223e+01  6.8261072944544324e+01  7.2428517984924810e+01  6.8315179154770746e+01  6.6405876519772747e+01  6.6547741497862972e+01  6.2529149239994219e+01  7.2809738540686254e+01  6.6319751777633812e+01  6.2191457431185569e+01  7.3191224857968365e+01  6.8415628293183971e+01  6.6407280865876757e+01  6.3410167198474809e+01  6.9540105771303828e+01  6.3850208333311755e+01  6.4702223972022324e+01  6.7316637080514141e+01  7.2110223821610276e+01  6.6434402385814295e+01  7.0986268783900897e+01  6.8319208327978984e+01  6.8339158238693557e+01  7.2829069787732735e+01  6.2531469724423395e+01  6.8522412258517548e+01  7.1427579719012144e+01  6.5200803748073213e+01  6.3196220349462926e+01  7.1260987453021940e+01  6.8204714239501982e+01  6.7612456938882076e+01  6.7561386300889055e+01  6.6162937362365412e+01  7.0178839506196113e+01  6.4169889261755657e+01  7.0406495296528149e+01  6.4035822639904637e+01  6.5486311459858854e+01  6.5985910099123743e+01  6.8780641823540407e+01  6.7164075597618222e+01  6.3145498467453812e+01  6.8674084999329281e+01  6.8104267898588219e+01  7.1102925467195817e+01  6.7276696198935014e+01  7.2104032737107772e+01  6.6531001878069233e+01  6.4778675712962553e+01  6.9934805317943059e+01  7.2920937808243579e+01  6.6690408730057399e+01  6.6391684075268671e+01  6.8373275699385104e+01  6.5120672041526277e+01  6.8395500663906972e+01  6.6355200492043608e+01  6.6718767341870901e+01  6.2321240625931104e+01  6.9938140282580605e+01  6.6685944508922717e+01  6.6603726230788425e+01  6.9796945123915293e+01  7.3038627763363465e+01  6.4221688969041807e+01  6.4181856056287955e+01  6.3806515565427048e+01  6.8971890840953577e+01  7.1094226032309379e+01  6.8324149033683170e+01  7.1086609361635936e+01  6.8348658406335375e+01  6.9863135270747094e+01  6.9731222400296630e+01  6.6045289093863772e+01  6.6181962809958719e+01  6.5109976101698180e+01  6.5197377328161267e+01  6.5347932602259263e+01  6.2327012478158778e+01  6.8375689813304220e+01  6.2132549916879867e+01  6.6394678267089944e+01  7.2861356864357063e+01  6.6243190397702506e+01  7.3420437813935166e+01  6.6293387747741704e+01  6.6282731904937023e+01  7.3257560753449042e+01  6.1988068341284617e+01  6.8464145250452532e+01  6.2483794502431437e+01  6.8432701672773518e+01  6.8438966237616299e+01  7.0876126412476538e+01  6.8907070799969304e+01  6.8132013607867648e+01  7.1265087461154039e+01  6.5454326881230884e+01  6.2674035687222826e+01  6.7660540350996030e+01  7.1766634321453665e+01  6.3493661039377429e+01  6.3905096017699528e+01  6.5589263020415899e+01  6.2438874857421091e+01  6.4975947877285606e+01  6.9458644627558741e+01  6.8325554205976701e+01  7.1421619961171231e+01  7.2421798934249026e+01  6.8486040993089617e+01  6.9527003455868879e+01  6.6926156305776544e+01  6.6603978752052711e+01  6.5077154129357496e+01  6.4011351256134603e+01  6.4077345455451507e+01  6.2096448886220095e+01  7.3297979118993794e+01  7.2645483297261435e+01  6.3443383735215313e+01  6.7809143315968512e+01  7.1727753036353519e+01  6.6538580723530444e+01  6.9185494626216183e+01  6.4008867264808714e+01  6.6437043168854473e+01  6.6948060900064874e+01  7.0526452395864041e+01  6.4240627353984294e+01  6.6325378264741715e+01  7.3387603717025087e+01  6.6258345956137632e+01  6.2017361840213546e+01  6.8457505995923896e+01  6.6481022275040019e+01  6.4416626235019564e+01  7.0054486610789894e+01  6.8391668914308255e+01  6.8400349927543132e+01  6.6355648833351367e+01  6.6345599228404453e+01  6.6918534885285695e+01  7.2981547577873684e+01  7.2885307208052964e+01  7.3079311642470032e+01  7.0209510006045534e+01  7.0143386973374533e+01  7.2676526127996610e+01  6.5606153842508206e+01  6.8330820418119927e+01  6.8280925581815197e+01  6.6505034126006620e+01  6.7335084232927812e+01  6.7028222159102711e+01  7.0640364789664332e+01  6.4347491935054151e+01  6.2271413413583197e+01  6.4054988144156951e+01  6.3824955533796086e+01  6.8996809492151456e+01  6.5203107804892184e+01  6.6497229524910338e+01  6.9849057270739522e+01  6.9818146551459677e+01  6.5472722970099142e+01  6.5631658378039845e+01  7.0337433320631476e+01  7.0498451585599426e+01  6.7390502855762364e+01  6.2992803469096664e+01  6.5254189352299449e+01  6.8164799315098278e+01  7.1232461654688194e+01  6.6964812206110082e+01  7.1944850093473931e+01  6.7532779818906718e+01  6.7873096456320468e+01  6.8131900903434754e+01  7.1355961920092170e+01  7.1581697238119673e+01  6.7953658004209373e+01  6.4854930701906596e+01  6.4982145577172489e+01  7.1329997349344040e+01  6.8251953742236836e+01  7.1112712060429175e+01  7.1871593310179733e+01  6.7669084470753461e+01  6.8445284012128482e+01  6.5168222022279409e+01  6.4874424762166413e+01  6.4927873964192102e+01  6.9756324012574566e+01  6.9690663368660609e+01  7.2340024776454030e+01  6.3906131205210627e+01  6.3814194013309873e+01  6.3687811895771411e+01  7.0446128843139661e+01  6.4220737118167662e+01  6.5338562828190334e+01  7.0415429753793291e+01  6.5690798223914669e+01  6.5859859151081352e+01  6.6930819607739380e+01  6.9772439970584898e+01  6.9711665556847436e+01  6.7366151402113502e+01  6.7853686209620705e+01  6.2463644980330393e+01  7.2632619553152352e+01  6.6429916962304006e+01  6.9321381638087757e+01  6.2864898423229803e+01  6.2684917868994575e+01  6.6679967307135058e+01  6.6605536422028678e+01  6.6601632604863013e+01  6.8186009112501466e+01  7.0778433296743117e+01  7.0891000395596251e+01  6.4486384928219977e+01  6.4562668591719799e+01  6.6477766161726720e+01  6.8956507440289315e+01  6.9676575729087546e+01  6.8547495502289607e+01  6.6492244211171780e+01  6.4231885478678819e+01  6.6411072248776421e+01  6.8361705482755042e+01  6.9141172293991858e+01  6.1967370959037105e+01  6.6235805706484797e+01  7.3443950934439115e+01  6.8468879961041765e+01  6.9840409850346802e+01  6.8406047040573441e+01  7.0859699505254994e+01  6.5936381146474460e+01  6.4164737508554111e+01  6.6515346437219009e+01  6.9778730995959236e+01  6.9859165425838981e+01  7.0911171647294594e+01  6.6826007644173842e+01  6.3020837275339495e+01  6.2897941429230364e+01  6.2728837970343193e+01  6.2994759408139380e+01  6.4583964893507741e+01  7.0910183308385456e+01  6.8748739270892102e+01  6.5221210091993342e+01  6.5203882567696127e+01  6.5259904863045136e+01  6.4472979325680242e+01  6.4481997129485549e+01  6.9342652784263862e+01  6.9244370021673149e+01  7.2270863096757552e+01  7.1111744398972021e+01  6.6407283256361552e+01  7.2597344513321559e+01  6.8223579370101561e+01  6.6959678417332356e+01  6.6078968532815750e+01  7.2891861810465343e+01  7.0068228906464498e+01  6.3689125077252911e+01  6.3639113527117289e+01  6.2416732942496353e+01  6.8049564564187179e+01  7.2009598082813795e+01  6.7437602545946405e+01  6.8210030141482278e+01  6.8275036830079657e+01  6.8306850711199914e+01  7.0145882111710165e+01  6.5286676008067985e+01  7.3092016362010781e+01  6.2649804611322324e+01  7.0810932056820789e+01  6.7882213842142292e+01  6.8386130813105567e+01  6.6366958849336584e+01  6.3854016408666887e+01  6.7303777368468445e+01  7.1053521654436594e+01  6.4827944410852055e+01  7.1650811904839529e+01  6.5773781765345802e+01  6.2461723840261747e+01  6.8338720422468242e+01  6.7895204071222082e+01  7.0628627881505707e+01  6.6469004021232820e+01  6.9798603952975014e+01  6.6243670891015697e+01  6.8465461264496724e+01  7.3427350445390033e+01  6.1981795211619939e+01  6.7804703179334950e+01  6.6492378453823164e+01  6.2814525115327001e+01  6.6604205776460660e+01  6.8288201545002863e+01  6.7843886010098672e+01  6.6437544490611387e+01  6.4632720885930553e+01  7.2734406063897083e+01  6.8360634204943295e+01  6.8332161158247416e+01  6.7989909254115858e+01  6.6724689703236891e+01  6.6695176480550359e+01  6.7050310201499926e+01  6.8366039989241941e+01  6.6413581773257391e+01  6.8377101041820723e+01  6.6221384260736329e+01  6.9431005766570195e+01  7.1556647312246113e+01  6.8667587893587026e+01  6.3296871140833773e+01  7.1610037926373636e+01  6.5335868547119773e+01  6.3234003291753993e+01  6.3553893058018339e+01  6.3544774384077265e+01  6.7064188575363161e+01  6.5302770382924180e+01  6.2517808609565542e+01  6.9673230589335887e+01  7.1970180880362278e+01  6.7394333434319293e+01  6.5377747557104300e+01  6.4111157268232702e+01  6.8573186698971071e+01  6.8310486543655358e+01  6.2369789480793912e+01  7.1411898969847343e+01  6.7971197094741640e+01  6.9823422859569703e+01  6.5231488354100478e+01  6.9853440127364692e+01  6.9580423113257567e+01  7.2221571103300704e+01  6.6398924519240978e+01  6.8368532824404312e+01  6.8354430115502439e+01  6.6415897927882824e+01  6.6388122381258583e+01  6.6388056728886340e+01  6.2421265894679216e+01  7.3003032865173722e+01  6.8470673518700266e+01  7.1309413349346187e+01  6.5194941966382643e+01  6.9564483997232614e+01  6.9081039444941268e+01  6.8201153264109593e+01  7.0034102575570657e+01  7.1056409630833826e+01  7.1650123944814752e+01  6.6491162739050182e+01  6.8425450453891600e+01  6.6313410613933002e+01  6.3054713396256815e+01  6.8368374773885677e+01  6.5837768224796761e+01  7.2516535837981976e+01  6.6463685310654682e+01  7.2311585663353611e+01  7.2458784664963801e+01  6.2595041637148320e+01  6.2516674865569883e+01  7.2824789713138472e+01  7.2835464335351730e+01  7.0675121570442926e+01  6.5932742169463111e+01  6.5968578786307958e+01  6.6311058113199820e+01  6.5903483006110960e+01  6.5472566748615463e+01  6.7024509630769273e+01  6.2307168955994527e+01  6.5090275253083860e+01  6.6382150667784245e+01  7.1171946721330173e+01  7.0364421220581477e+01  6.6503447494713086e+01  6.5468620428024678e+01  6.5148718191288893e+01  6.5743089008260370e+01  6.3894432132936679e+01  7.0965226441664370e+01  6.9923793963696212e+01  6.8385093795062886e+01  6.8607141261926827e+01  6.8512747602327380e+01  7.1301578475973557e+01  6.2179864949062122e+01  7.3203545890216944e+01  7.3154332744803128e+01  7.3159378170752660e+01  6.2240444727505071e+01  6.2143946136459093e+01  6.3144847856924329e+01  6.8004864900476264e+01  6.3356808309462089e+01  6.9052636069226878e+01  6.4050264389708445e+01  6.6344576852838728e+01  6.6324933264910300e+01  6.8401095662379134e+01  6.8422457618311185e+01  6.8413160769758036e+01  6.5188637419336942e+01  7.3245350363448168e+01  6.8428752354111879e+01  6.6299434443766145e+01  6.2653344753764451e+01  6.9419360494131951e+01  6.5447932650230030e+01  6.8982165315773869e+01  7.1271355627743546e+01  6.8401759566100793e+01  6.6399539241174296e+01  6.8373723619831992e+01  6.4652130500753259e+01  6.3524745258794844e+01  6.3534495649155986e+01  6.3240567197001901e+01  7.1903065222822335e+01  6.5320626721541004e+01  7.2778583126911826e+01  6.3356633263054945e+01  6.8319079752238295e+01  6.6456222388550827e+01  6.8742846224194594e+01  6.9386880572987764e+01  6.2209636018174137e+01  6.5567689150190390e+01  7.2763636970716774e+01  6.3639235889587198e+01  6.6237336023758985e+01  6.4309506281953475e+01  7.0948591438931089e+01  6.7511561887587817e+01  6.5206999942562078e+01  6.5498870525297747e+01  6.4956877176753707e+01  6.6299017697054012e+01  7.1958885603077135e+01  7.0057081716180349e+01  6.7105722995870309e+01  6.6628263616420824e+01  6.6497983571472943e+01  6.6802382353669060e+01  6.6827553401457237e+01  6.5276106802114299e+01  6.8105644460675862e+01  6.8344991536167356e+01  6.7234523895908353e+01  6.6400273926592732e+01  6.8372598615721486e+01  6.6464390346907408e+01  7.1388743577507526e+01  6.8171024591542988e+01  6.9861207538607815e+01  6.9826943103438836e+01  6.9991007101152064e+01  6.6718325269275567e+01  6.6173027328232607e+01  6.3925414704270501e+01  6.3925409879520807e+01  6.3792969989505956e+01  6.7239642276930468e+01  6.2505044791545863e+01  6.6397834524782780e+01  6.7672934668117819e+01  7.2789569220980795e+01  7.2928901364814550e+01  7.2272384655734939e+01  6.7591787517899178e+01  6.7531543133384460e+01  6.7301350792216539e+01  6.6336954384342661e+01  6.4669919991692751e+01  7.2047759773190180e+01  7.0945112330053263e+01  6.2531984358472691e+01  6.9984618613377918e+01  7.0235162714591240e+01  6.6560077254150428e+01  7.1870982969762920e+01  6.4237468201637284e+01  7.0310400806475712e+01  6.4126411170475819e+01  7.0356682074469717e+01  6.6078617734943222e+01  6.6258136455653570e+01  6.4846437738587312e+01  7.1100359331906219e+01  6.4775075680281361e+01  6.4055141085478084e+01  6.6652086996057349e+01  6.6386414695035128e+01  7.1096932243162129e+01  6.5358283121726444e+01  6.7613602550836035e+01  6.9640696570258456e+01  6.7602838908223248e+01  6.4917670268554133e+01  7.0254653697876222e+01  6.2144034126347869e+01  7.3225388090706403e+01  6.999