<?xml version="1.0"?>
<VTKFile type="UnstructuredGrid"  version="0.1"  >
<UnstructuredGrid>
<Piece  NumberOfPoints="2331" NumberOfCells="4248">
<Points>
<DataArray  type="Float64"  NumberOfComponents="3"  format="ascii">0 0.3 0  0 0 0  0.04999999999999999 0 0  0.0514582251803892 0.02410733605106462 0  0.0558116365147896 0.04786313285751154 0  0.06299675146291706 0.07092097740850717 0  0.07290879486935808 0.09294463440875382 0  0.08540322682126872 0.1136129493462312 0  0.1002978503657798 0.132624531648159 0  0.117375468351841 0.1497021496342203 0  0.1363870506537689 0.1645967731787313 0  0.1570553655912463 0.177091205130642 0  0.1790790225914929 0.187003248537083 0  0.2021368671424885 0.1941883634852104 0  0.2258926639489354 0.1985417748196108 0  0.25 0.2 0  0.2741073360510646 0.1985417748196108 0  0.2978631328575116 0.1941883634852104 0  0.3209209774085071 0.187003248537083 0  0.3429446344087537 0.177091205130642 0  0.3636129493462312 0.1645967731787313 0  0.3826245316481591 0.1497021496342202 0  0.3997021496342202 0.132624531648159 0  0.4145967731787313 0.1136129493462312 0  0.427091205130642 0.09294463440875371 0  0.4370032485370829 0.07092097740850713 0  0.4441883634852104 0.04786313285751155 0  0.4485417748196108 0.02410733605106461 0  0.45 0 0  0.55 0 0  0.5514582251803892 0.02410733605106462 0  0.5558116365147896 0.04786313285751154 0  0.5629967514629171 0.07092097740850717 0  0.5729087948693581 0.09294463440875382 0  0.5854032268212688 0.1136129493462312 0  0.6002978503657798 0.132624531648159 0  0.617375468351841 0.1497021496342203 0  0.6363870506537689 0.1645967731787313 0  0.6570553655912463 0.177091205130642 0  0.6790790225914929 0.187003248537083 0  0.7021368671424885 0.1941883634852104 0  0.7258926639489354 0.1985417748196108 0  0.75 0.2 0  0.7741073360510646 0.1985417748196108 0  0.7978631328575116 0.1941883634852104 0  0.8209209774085071 0.187003248537083 0  0.8429446344087537 0.177091205130642 0  0.8636129493462312 0.1645967731787313 0  0.8826245316481591 0.1497021496342202 0  0.8997021496342202 0.132624531648159 0  0.9145967731787312 0.1136129493462312 0  0.927091205130642 0.09294463440875371 0  0.9370032485370829 0.07092097740850713 0  0.9441883634852104 0.04786313285751155 0  0.9485417748196108 0.02410733605106461 0  0.95 0 0  1 0 0  1 0.3 0  0.9758926639489353 0.3014582251803892 0  0.9521368671424885 0.3058116365147896 0  0.9290790225914928 0.3129967514629171 0  0.9070553655912461 0.3229087948693581 0  0.8863870506537688 0.3354032268212687 0  0.867375468351841 0.3502978503657798 0  0.8502978503657798 0.367375468351841 0  0.8354032268212687 0.3863870506537689 0  0.822908794869358 0.4070553655912464 0  0.8129967514629171 0.4290790225914929 0  0.8058116365147896 0.4521368671424885 0  0.8014582251803892 0.4758926639489354 0  0.8 0.4999999999999999 0  0.8014582251803892 0.5241073360510646 0  0.8058116365147896 0.5478631328575115 0  0.8129967514629171 0.5709209774085071 0  0.8229087948693581 0.5929446344087538 0  0.8354032268212688 0.6136129493462312 0  0.8502978503657798 0.632624531648159 0  0.867375468351841 0.6497021496342202 0  0.8863870506537689 0.6645967731787313 0  0.9070553655912463 0.677091205130642 0  0.9290790225914929 0.6870032485370829 0  0.9521368671424885 0.6941883634852104 0  0.9758926639489354 0.6985417748196108 0  1 0.7 0  1 1 0  0.95 1 0  0.9485417748196108 0.9758926639489353 0  0.9441883634852104 0.9521368671424885 0  0.9370032485370829 0.9290790225914928 0  0.927091205130642 0.9070553655912463 0  0.9145967731787312 0.8863870506537688 0  0.8997021496342201 0.8673754683518409 0  0.882624531648159 0.8502978503657798 0  0.863612949346231 0.8354032268212686 0  0.8429446344087537 0.822908794869358 0  0.8209209774085071 0.8129967514629171 0  0.7978631328575114 0.8058116365147896 0  0.7741073360510646 0.8014582251803892 0  0.75 0.8 0  0.7258926639489353 0.8014582251803892 0  0.7021368671424885 0.8058116365147896 0  0.6790790225914928 0.8129967514629171 0  0.6570553655912461 0.8229087948693581 0  0.6363870506537688 0.8354032268212688 0  0.617375468351841 0.8502978503657798 0  0.6002978503657798 0.867375468351841 0  0.5854032268212687 0.8863870506537689 0  0.572908794869358 0.9070553655912463 0  0.5629967514629171 0.9290790225914929 0  0.5558116365147896 0.9521368671424885 0  0.5514582251803892 0.9758926639489355 0  0.55 0.9999999999999999 0  0.45 0.9999999999999999 0  0.4485417748196108 0.9758926639489353 0  0.4441883634852104 0.9521368671424885 0  0.4370032485370829 0.9290790225914928 0  0.427091205130642 0.9070553655912463 0  0.4145967731787313 0.8863870506537688 0  0.3997021496342201 0.8673754683518409 0  0.382624531648159 0.8502978503657798 0  0.363612949346231 0.8354032268212686 0  0.3429446344087536 0.822908794869358 0  0.3209209774085071 0.8129967514629171 0  0.2978631328575115 0.8058116365147896 0  0.2741073360510646 0.8014582251803892 0  0.25 0.8 0  0.2258926639489353 0.8014582251803892 0  0.2021368671424885 0.8058116365147896 0  0.1790790225914928 0.8129967514629171 0  0.1570553655912462 0.8229087948693581 0  0.1363870506537688 0.8354032268212688 0  0.117375468351841 0.8502978503657798 0  0.1002978503657797 0.867375468351841 0  0.08540322682126869 0.8863870506537689 0  0.07290879486935797 0.9070553655912463 0  0.06299675146291703 0.9290790225914929 0  0.05581163651478957 0.9521368671424885 0  0.0514582251803892 0.9758926639489355 0  0.04999999999999999 0.9999999999999999 0  0 1 0  -0 0.7000000000000001 0  0.0241073360510646 0.6985417748196108 0  0.04786313285751161 0.6941883634852104 0  0.07092097740850711 0.6870032485370829 0  0.09294463440875372 0.677091205130642 0  0.1136129493462312 0.6645967731787312 0  0.1326245316481591 0.6497021496342202 0  0.1497021496342202 0.632624531648159 0  0.1645967731787313 0.6136129493462312 0  0.177091205130642 0.5929446344087537 0  0.187003248537083 0.5709209774085071 0  0.1941883634852104 0.5478631328575115 0  0.1985417748196108 0.5241073360510646 0  0.2 0.5 0  0.1985417748196108 0.4758926639489353 0  0.1941883634852104 0.4521368671424885 0  0.1870032485370829 0.4290790225914928 0  0.177091205130642 0.4070553655912463 0  0.1645967731787313 0.3863870506537688 0  0.1497021496342202 0.3673754683518409 0  0.132624531648159 0.3502978503657798 0  0.113612949346231 0.3354032268212686 0  0.09294463440875361 0.322908794869358 0  0.07092097740850711 0.3129967514629171 0  0.04786313285751148 0.3058116365147896 0  0.02410733605106464 0.3014582251803892 0  0.6985417748196108 0.5241073360510646 0  0.7 0.5 0  0.6985417748196108 0.4758926639489353 0  0.6941883634852104 0.4521368671424885 0  0.6870032485370829 0.4290790225914928 0  0.677091205130642 0.4070553655912463 0  0.6645967731787312 0.3863870506537688 0  0.6497021496342201 0.3673754683518409 0  0.632624531648159 0.3502978503657798 0  0.613612949346231 0.3354032268212686 0  0.5929446344087537 0.322908794869358 0  0.5709209774085071 0.3129967514629171 0  0.5478631328575114 0.3058116365147896 0  0.5241073360510646 0.3014582251803892 0  0.4999999999999999 0.3 0  0.4758926639489353 0.3014582251803892 0  0.4521368671424885 0.3058116365147896 0  0.4290790225914928 0.3129967514629171 0  0.4070553655912462 0.3229087948693581 0  0.3863870506537688 0.3354032268212687 0  0.367375468351841 0.3502978503657798 0  0.3502978503657798 0.367375468351841 0  0.3354032268212687 0.3863870506537689 0  0.322908794869358 0.4070553655912464 0  0.3129967514629171 0.4290790225914929 0  0.3058116365147896 0.4521368671424885 0  0.3014582251803892 0.4758926639489354 0  0.3 0.4999999999999999 0  0.3014582251803892 0.5241073360510646 0  0.3058116365147896 0.5478631328575115 0  0.3129967514629171 0.5709209774085071 0  0.3229087948693581 0.5929446344087538 0  0.3354032268212687 0.6136129493462312 0  0.3502978503657798 0.632624531648159 0  0.367375468351841 0.6497021496342202 0  0.3863870506537689 0.6645967731787313 0  0.4070553655912463 0.677091205130642 0  0.4290790225914929 0.6870032485370829 0  0.4521368671424885 0.6941883634852104 0  0.4758926639489354 0.6985417748196108 0  0.4999999999999999 0.7 0  0.5241073360510646 0.6985417748196108 0  0.5478631328575116 0.6941883634852104 0  0.5709209774085071 0.6870032485370829 0  0.5929446344087537 0.677091205130642 0  0.6136129493462312 0.6645967731787312 0  0.6326245316481591 0.6497021496342202 0  0.6497021496342202 0.632624531648159 0  0.6645967731787312 0.6136129493462312 0  0.677091205130642 0.5929446344087537 0  0.6870032485370829 0.5709209774085071 0  0.6941883634852104 0.5478631328575115 0  0 0.15 0  1 0.15 0  1 0.85 0  0 0.8500000000000001 0  0 0.075 0  1 0.075 0  1 0.925 0  0 0.925 0  0.5 0.8127595604293815 0  0.5069440078039168 0.190422209288238 0  0.25 0.3127595604293815 0  0.756944007803917 0.3095777907117619 0  0.756944007803917 0.6904222092882382 0  0.25 0.6872404395706185 0  0 0.225 0  0.4255768646051012 0.2241073097134061 0  1 0.7749999999999999 0  0.6773391559270888 0.2766774022734219 0  1 0.225 0  0.6755768646051011 0.7241073097134062 0  0 0.7750000000000001 0  0.5818971135297744 0.2287925518358889 0  0.8318971135297746 0.728792551835889 0  0.1659156081861886 0.7301636995921477 0  0.08376842746533225 0.2299656297760495 0  0.4236002201977974 0.7746535834185855 0  0.0840843918138115 0.7698363004078523 0  0.3340843918138113 0.7301636995921477 0  0.3340843918138114 0.2698363004078523 0  0.9159156081861887 0.2301636995921477 0  0.5840843918138116 0.7698363004078522 0  0.1659156081861887 0.2698363004078523 0  0.9162315725346678 0.7700343702239506 0  0.8340843918138114 0.2698363004078523 0  0.75 0.6146645247768686 0  0.5 0.1125158665330878 0  0.75 0.3874841334669124 0  0.2504983345544904 0.6122915843562002 0  0.2504983345544902 0.3877084156437999 0  0.5 0.8879783056303169 0  0.7005361650220154 0.3333055947145943 0  0.70416808765371 0.6599554817221275 0  0.449930214263529 0.1678187287522426 0  0.2247310981387008 0.7415600637745463 0  0.5155081196221678 0.7563797802146907 0  0.2752689018612993 0.2584399362254537 0  0.05605196690611226 0.8246131191226815 0  0.943948033093887
[...]
<PointData  Scalars="Temperature"> 
<DataArray  type="Float64"  Name="Temperature"  format="ascii">7.5289451145933540e+01  7.6203437197605510e+01  7.6201932859266776e+01  7.6181193954316583e+01  7.6123189164523964e+01  7.6032945673963184e+01  7.5912157809803389e+01  7.5761994388117785e+01  7.5583832859755617e+01  7.5375008295203031e+01  7.5129630905647232e+01  7.4850537984456309e+01  7.4545966342305789e+01  7.4222794496733883e+01  7.3887839512993835e+01  7.3549602339776129e+01  7.3208744913173078e+01  7.2863488912489274e+01  7.2520004466519424e+01  7.2175891215125588e+01  7.1848021266419892e+01  7.1548121466909947e+01  7.1288902307029758e+01  7.1088157223081652e+01  7.0944528546380454e+01  7.0856096593900006e+01  7.0807766526553110e+01  7.0788025785007548e+01  7.0783127834420426e+01  7.0718658156806427e+01  7.0700541404788652e+01  7.0644182064068332e+01  7.0538327407016141e+01  7.0373455158219258e+01  7.0134790062273652e+01  6.9821338671054889e+01  6.9438318020307776e+01  6.8998514717900406e+01  6.8521619918448010e+01  6.8035437146146762e+01  6.7568016059356083e+01  6.7142704916348023e+01  6.6773596280626137e+01  6.6464743620372232e+01  6.6212498285880486e+01  6.6012517306768487e+01  6.5851776927580588e+01  6.5723519179196458e+01  6.5621400184378928e+01  6.5538479897808855e+01  6.5471470979966881e+01  6.5416631836598015e+01  6.5373237648115946e+01  6.5341014188970988e+01  6.5320326986983176e+01  6.5312944863494053e+01  6.5312341688776158e+01  6.5597906241139754e+01  6.5608788943010879e+01  6.5639498815999261e+01  6.5684100661256139e+01  6.5731511226708562e+01  6.5766687127808282e+01  6.5769777496083208e+01  6.5720276611100161e+01  6.5602363543390226e+01  6.5408835534992804e+01  6.5125352829812627e+01  6.4769269575116994e+01  6.4357260856668404e+01  6.3916451542742443e+01  6.3477052363578629e+01  6.3063779644020251e+01  6.2680624941528599e+01  6.2331901217836865e+01  6.2004312712300440e+01  6.1693212445360942e+01  6.1400198146743932e+01  6.1121755120822741e+01  6.0871174704899104e+01  6.0658062523091431e+01  6.0496246375356499e+01  6.0396257607948094e+01  6.0361166346845785e+01  5.9591701741473642e+01  5.9592880527788672e+01  5.9610232625934358e+01  5.9658897788148181e+01  5.9734623176524941e+01  5.9836259063235929e+01  5.9962499948338952e+01  6.0113353591760010e+01  6.0290904371132399e+01  6.0496156892479767e+01  6.0731154606727777e+01  6.0991597387201018e+01  6.1267751343525958e+01  6.1556915685156632e+01  6.1846719022114840e+01  6.2143574999974447e+01  6.2443979206721934e+01  6.2747274533978469e+01  6.3048281574356714e+01  6.3340395074050335e+01  6.3603329743687667e+01  6.3833007344400727e+01  6.4008963333733206e+01  6.4136309693637017e+01  6.4212907377126044e+01  6.4252094453571317e+01  6.4268988393201084e+01  6.4272886411303219e+01  6.4330943182109650e+01  6.4349153488310080e+01  6.4402841788487109e+01  6.4500103239835198e+01  6.4652545505316553e+01  6.4874592009486960e+01  6.5163805498904054e+01  6.5519553286393517e+01  6.5924249860847482e+01  6.6364862319943398e+01  6.6810362269750215e+01  6.7233743926877310e+01  6.7618449532490061e+01  6.7942385943223456e+01  6.8206945612792865e+01  6.8411312617989879e+01  6.8566428768604567e+01  6.8682178402581897e+01  6.8769140081473353e+01  6.8835278711342397e+01  6.8886082600786878e+01  6.8925406366296798e+01  6.8956933172739426e+01  6.8981237178894190e+01  6.8999351519994946e+01  6.9010413801617403e+01  6.9014583076560356e+01  6.9014714942153844e+01  6.8874310318059287e+01  6.8869250682590419e+01  6.8856022917836910e+01  6.8839807599085148e+01  6.8829376410650951e+01  6.8838171059835005e+01  6.8882967564905229e+01  6.8981305553987369e+01  6.9151452589890198e+01  6.9401472965224599e+01  6.9739061028517114e+01  7.0154941068997118e+01  7.0632830869224364e+01  7.1139458848977753e+01  7.1645762625569560e+01  7.2125975838567172e+01  7.2568592804203405e+01  7.2974592653853207e+01  7.3356625270905354e+01  7.3720055438954276e+01  7.4067260089652024e+01  7.4391288433329208e+01  7.4685923260350620e+01  7.4937716904608692e+01  7.5126800026066633e+01  7.5247304296543334e+01  6.3532334821235196e+01  6.3960127572779314e+01  6.4419298104445716e+01  6.4888580533494434e+01  6.5355573043686817e+01  6.5819341867762034e+01  6.6289548974987596e+01  6.6777415719645845e+01  6.7291845964664674e+01  6.7822243487473287e+01  6.8364228171012229e+01  6.8910483182830490e+01  6.9441655274632993e+01  6.9952121964578026e+01  7.0437070303686596e+01  7.0893147925080385e+01  7.1315627990375802e+01  7.1703724807933199e+01  7.2046661988464095e+01  7.2334012674531536e+01  7.2541222446445659e+01  7.2658673846364721e+01  7.2668226635438643e+01  7.2564311531615303e+01  7.2339380730402425e+01  7.2008794231549331e+01  7.1586098070382349e+01  7.1096845854694450e+01  7.0576626980496613e+01  7.0052892880113703e+01  6.9544516157371916e+01  6.9041992955810585e+01  6.8552452555789657e+01  6.8062276743431582e+01  6.7560989277177342e+01  6.7052680629840737e+01  6.6533595439699312e+01  6.6025971194670674e+01  6.5529705644415600e+01  6.5061161443827672e+01  6.4617775289115784e+01  6.4203724051024864e+01  6.3818567125989247e+01  6.3471353866384348e+01  6.3162382748979937e+01  6.2906657662493856e+01  6.2720005190392101e+01  6.2612157506912027e+01  6.2599266821254055e+01  6.2688199693341957e+01  6.2880187579897644e+01  6.3167064217732104e+01  7.5762557578305092e+01  6.5463998083616431e+01  5.9960941330084921e+01  6.8932645949429983e+01  7.6068470132889303e+01  6.5360138283474669e+01  5.9704831604870932e+01  6.8988734040479031e+01  6.4501349379075364e+01  7.0467612203677660e+01  7.3313937198816063e+01  6.6298879625757863e+01  6.1983842403520093e+01  6.8425750412846952e+01  7.5451461059225593e+01  7.1448614323678839e+01  6.0222823679487114e+01  6.7431419012744456e+01  6.5556851237281478e+01  6.2568181841265044e+01  6.8888657327036810e+01  6.9285805351559262e+01  6.1220424365925886e+01  6.8651882940328647e+01  7.5173064944047866e+01  6.5569568790746715e+01  6.8827249099016342e+01  6.7184353554491665e+01  7.2613070438051210e+01  6.5660678697488734e+01  6.3579150561935521e+01  7.4304991966110251e+01  6.0458524161344521e+01  6.5963342775307723e+01  6.2466979171661862e+01  7.0659949240684767e+01  6.5622248816964401e+01  6.9210719044820678e+01  7.2790572998615175e+01  6.4391708636308024e+01  6.6608413511714488e+01  6.2408890983309291e+01  7.1053780320605284e+01  6.8300076027406121e+01  6.4369103219385750e+01  7.3218652140885794e+01  6.8890460923521857e+01  6.5538331542256870e+01  7.5555876018885073e+01  6.0152151298233882e+01  7.0705627578963956e+01  6.2072583090828516e+01  6.6826744795844874e+01  6.5015960397943289e+01  6.8775919867904733e+01  7.3736227552917512e+01  6.8005523993603504e+01  7.2846368200798665e+01  6.3957459993447138e+01  7.0726205301346894e+01  6.4849038069165459e+01  6.3231643482328678e+01  7.2089642330104226e+01  7.0263655397771373e+01  6.4301263127752947e+01  6.4327329145954295e+01  7.3773781450705513e+01  6.7833088617428345e+01  6.9889030201069474e+01  6.1973656629986394e+01  6.5910892881855048e+01  6.8351194498385624e+01  7.2002790489417038e+01  7.2191989168332057e+01  6.2995435877504455e+01  6.3163479401526772e+01  6.8167569168253323e+01  6.1628019575388180e+01  6.6318960711899280e+01  6.4032297342927677e+01  7.0751323306637843e+01  7.1224044672632999e+01  6.6364470912234495e+01  6.6474353162578126e+01  7.0013935484034846e+01  6.0787559053468989e+01  6.0831008931018381e+01  6.4922463741186192e+01  7.4850339142609556e+01  6.8867210532620248e+01  6.5729647100128631e+01  6.8710694325444436e+01  7.4692117262367290e+01  6.8788472526413670e+01  6.5603720168356261e+01  6.5831842979116445e+01  6.0383397533093586e+01  7.5260568454772908e+01  6.5453731240749150e+01  5.9908150135992500e+01  7.5826835828226749e+01  6.8936946938056607e+01  6.5707013473054886e+01  6.1625622505052640e+01  7.0313633880794995e+01  6.2264411956029171e+01  6.3535240278696463e+01  6.7337652216451389e+01  7.4225956456625937e+01  6.5644558140949641e+01  7.2527242092098575e+01  6.8791698834777222e+01  6.8825093935081156e+01  7.5288171384795859e+01  6.0388207443883751e+01  6.9078662587637936e+01  7.3228036217567677e+01  6.4270314411889231e+01  6.1321349484846046e+01  7.2969138313345596e+01  6.8619800220902235e+01  6.7454496827224105e+01  6.7395412808423785e+01  6.5668551625483715e+01  7.1288558454140684e+01  6.2734729814403011e+01  7.1627570347219532e+01  6.2550703032803135e+01  6.4688291769955512e+01  6.5408743351057296e+01  6.9193863490468416e+01  6.6801187392911416e+01  6.1259459407924815e+01  6.9029708902068890e+01  6.8482246808943444e+01  7.2692590300096640e+01  6.7282190121399495e+01  7.4207590254353605e+01  6.5834949398582069e+01  6.3642473796104674e+01  7.0914388649131780e+01  7.5425340855992332e+01  6.6057694289489234e+01  6.5577016418328611e+01  6.8874772470199147e+01  6.4148906586813752e+01  6.8907408860164637e+01  6.5514994926709718e+01  6.6123453343643249e+01  6.0091265180343591e+01  7.0910349427823050e+01  6.6116322715117164e+01  6.6013612910199782e+01  7.0700631957281530e+01  7.5600141279289801e+01  6.2735302056414206e+01  6.2692075649008430e+01  6.2179260251747657e+01  6.9720479598699470e+01  7.2749704875780211e+01  6.8790021721997192e+01  7.2717402442508700e+01  6.8837966417018194e+01  7.0792872975009502e+01  7.0594794555804853e+01  6.5219513142811977e+01  6.5421038505147806e+01  6.4138982471234087e+01  6.4269418109122128e+01  6.4488751838283520e+01  6.0098939814717781e+01  6.8878072744528794e+01  5.9825069629804787e+01  6.5585008499211426e+01  7.5337194546389583e+01  6.5325037238651703e+01  7.6167817751050990e+01  6.5409560925884264e+01  6.5391476592241446e+01  7.5925518203681676e+01  5.9621465338663519e+01  6.9007789162446670e+01  6.0319381243209335e+01  6.8961890615434186e+01  6.8971043402182744e+01  7.2429601802393378e+01  6.9626357399610768e+01  6.8519457228235211e+01  7.2949945361947769e+01  6.4640019578022020e+01  6.0587433155836244e+01  6.7838460722348771e+01  7.3700091490314151e+01  6.1759994130339905e+01  6.2302546361544437e+01  6.4830775297649808e+01  6.0256467107369417e+01  6.3934465191201035e+01  7.0204712285504840e+01  6.8795278516874404e+01  7.3210866842332820e+01  7.4684078716527580e+01  6.8755121380569037e+01  7.0297174732148946e+01  6.6435537344588525e+01  6.5985441967843641e+01  6.4081354406271373e+01  6.2498462592284561e+01  6.2586984298102692e+01  5.9774217376667231e+01  7.5985625741764892e+01  7.5015359554163808e+01  6.1665252874822258e+01  6.8050912824167881e+01  7.3654605796640652e+01  6.5825466472200006e+01  6.9791531801484240e+01  6.2462312662890461e+01  6.5657136721427264e+01  6.6508087701265197e+01  7.1812722485986313e+01  6.2845986997738379e+01  6.5902268231181907e+01  7.6118963059333623e+01  6.5350496146506998e+01  5.9662750446300841e+01  6.8998103337085283e+01  6.6129742067250319e+01  6.3005126837424392e+01  7.1097946453420235e+01  6.8901936284486823e+01  6.8914554929572233e+01  6.5513444234586160e+01  6.5498064979432229e+01  6.6763560401432699e+01  7.5514896544971364e+01  7.5372153119678941e+01  7.5660525035088384e+01  7.1325719027368848e+01  7.1228583063657439e+01  7.5063232660055178e+01  6.4859134812077713e+01  6.8810050881611858e+01  6.8740079929270010e+01  6.5759175671437745e+01  6.7059624668549418e+01  6.6575828108266876e+01  7.1984435720217945e+01  6.3001094903450920e+01  6.0020796073178303e+01  6.2539293840605580e+01  6.2217380505776298e+01  6.9507778788790048e+01  6.4279674458167023e+01  6.5802632883110078e+01  7.0767766227956812e+01  7.0721345605023600e+01  6.4438443018064092e+01  6.4660441604922951e+01  7.1667297391878336e+01  7.1899065837800578e+01  6.7129494368862424e+01  6.1035409111601929e+01  6.4354250089588959e+01  6.8273448809230786e+01  7.2893720524064989e+01  6.6828442282404851e+01  7.3977679576373276e+01  6.7651152409125245e+01  6.8146771767410556e+01  6.8520905077686038e+01  7.3077640726369395e+01  7.3429149359127763e+01  6.8261441490151100e+01  6.3759262160366362e+01  6.3949662827566577e+01  7.3060328537416027e+01  6.8694010958017273e+01  7.2739754899748533e+01  7.3876663931189739e+01  6.7846400389816267e+01  6.8969819563765071e+01  6.4220567905498569e+01  6.3624584794760665e+01  6.3695316146090356e+01  7.0839720294552663e+01  7.0746839501057437e+01  7.4565470608118062e+01  6.2356442456614516e+01  6.2226566524502310e+01  6.2031206624374747e+01  7.1695720112331600e+01  6.2824507471096219e+01  6.4467243126032983e+01  7.1646614953645923e+01  6.4984748283504757e+01  6.5228015315271364e+01  6.6465700552987627e+01  7.0676059150938841e+01  7.0579779196552195e+01  6.7084954555864627e+01  6.7815341390043614e+01  6.0291725318059399e+01  7.4995512231187931e+01  6.5724893635427705e+01  6.9988776472876054e+01  6.0861008359191644e+01  6.0605519551292559e+01  6.6080908872258888e+01  6.5951345754774110e+01  6.5914119207386193e+01  6.8601563560869096e+01  7.2205440413249050e+01  7.2375901492007486e+01  6.3216843320681576e+01  6.3327903297571183e+01  6.6122693403869164e+01  6.9449669675644643e+01  7.0518218397592179e+01  6.8843792571295751e+01  6.5745252993823456e+01  6.2753444523833714e+01  6.5607924589394869e+01  6.8857946771420558e+01  6.9729917581591550e+01  5.9592298375922574e+01  6.5312625048739164e+01  7.6202804534123331e+01  6.9014694956928963e+01  7.0769249548317092e+01  6.8639581117973677e+01  7.2324160351676241e+01  6.5340540264631670e+01  6.2738001709066062e+01  6.5797035440875277e+01  7.0663759681125640e+01  7.0784472003679198e+01  7.2484038775112651e+01  6.6265975131126893e+01  6.1076611780633513e+01  6.0904883773840950e+01  6.0665865205188204e+01  6.1043646662027626e+01  6.3353636492415156e+01  7.2396985327375816e+01  6.9402165928784825e+01  6.4306492200556860e+01  6.4281481698911890e+01  6.4360855768126399e+01  6.3193369200597004e+01  6.3088410737862439e+01  7.0250180277408617e+01  7.0108691534579108e+01  7.4461613855606757e+01  7.2717554061828821e+01  6.6021856358391872e+01  7.4944815563233121e+01  6.8650059806470352e+01  6.6822637143563682e+01  6.5272298021514843e+01  7.5382344802563665e+01  7.1108897517263415e+01  6.2004591999839036e+01  6.1945949824709459e+01  6.0225904103753038e+01  6.8395479415158576e+01  7.4069425606578179e+01  6.7514411591241966e+01  6.8635882139855894e+01  6.8730336496072482e+01  6.8777298313002618e+01  7.1396320121681271e+01  6.4187255295879410e+01  7.5679268767059185e+01  6.0555055546929964e+01  7.2344484634810570e+01  6.7867433032722076e+01  6.8893630001961569e+01  6.5534932791400621e+01  6.2237490975303366e+01  6.7022684532157882e+01  7.2638310670144293e+01  6.3721730831526067e+01  7.3553236474366770e+01  6.4848794079330560e+01  6.0288427793793829e+01  6.8822692782158867e+01  6.7880621254568808e+01  7.2079759507011474e+01  6.5703369193633037e+01  7.0695859189796877e+01  6.5325838968084838e+01  6.9009708664584736e+01  7.6178103155928383e+01  5.9612626009863085e+01  6.8046666534971138e+01  6.5837919962620091e+01  6.0784878488071001e+01  6.5926225298863557e+01  6.8748305937927526e+01  6.7796560573914519e+01  6.5660784730220072e+01  6.3428285374737811e+01  7.5148671007102934e+01  6.8849749859030496e+01  6.8814009775032844e+01  6.8308749958513999e+01  6.6121103981343992e+01  6.6439014693168090e+01  6.6952844638270491e+01  6.8863702929661144e+01  6.5618394471270548e+01  6.8880279073343956e+01  6.5454117097484215e+01  7.0158022190909676e+01  7.3382988633321290e+01  6.9282769853332582e+01  6.1477523233603527e+01  7.3486167606070026e+01  6.4460217067326667e+01  6.1382814894192123e+01  6.1843009250012258e+01  6.1823902739956075e+01  6.6646466801150297e+01  6.4424124651274880e+01  6.0367757063443939e+01  7.0510446664559240e+01  7.4005479214219463e+01  6.7452941523418602e+01  6.4529971034865440e+01  6.2604580813354062e+01  6.9148101309863691e+01  6.8783024766951542e+01  6.0159192089090539e+01  7.3175673182621196e+01  6.8283843323281658e+01  7.0728740326227026e+01  6.4321783307501505e+01  7.0773828278107771e+01  7.0371838943760778e+01  7.4382003601334802e+01  6.5585057772563374e+01  6.8868084122663319e+01  6.8846837125325692e+01  6.5619201603628369e+01  6.5573055366095673e+01  6.5572243688223139e+01  6.0232636284268075e+01  7.5547247604872922e+01  6.8727075969681195e+01  7.3060525847347847e+01  6.4264348941115472e+01  7.0361043177912009e+01  6.9638030416722856e+01  6.8332524906511452e+01  7.1070818221060406e+01  7.2682978696623962e+01  7.3527366215712021e+01  6.5763251338506720e+01  6.8951306826515832e+01  6.5442794114731853e+01  6.1131414497740820e+01  6.8858330576715886e+01  6.5192577670516755e+01  7.4826542417257798e+01  6.5708579742214752e+01  7.4519182400832861e+01  7.4736305587852812e+01  6.0476023216945144e+01  6.0365648542625905e+01  7.5282993383960019e+01  7.5298521108424453e+01  7.2041154860151238e+01  6.5334620664275619e+01  6.5126772583345002e+01  6.5583220879173894e+01  6.5289815105897020e+01  6.4661832037846196e+01  6.6575891631873176e+01  6.0071062284248427e+01  6.4108597460605665e+01  6.5986050962627218e+01  7.2833955957893153e+01  7.1706934383315527e+01  6.5831690699011546e+01  6.4434829514094119e+01  6.4197609204767176e+01  6.5055721071489771e+01  6.2307221298152399e+01  7.2550480746759263e+01  7.0886169982199988e+01  6.8892176602444707e+01  6.9200467486570503e+01  6.9063609258761957e+01  7.3042057029239359e+01  5.9891732265968088e+01  7.5845197229973223e+01  7.5772014760889292e+01  7.5779426399929221e+01  5.9977321500706886e+01  5.9841203803449716e+01  6.1247881637761985e+01  6.8338188856344175e+01  6.1554602466144857e+01  6.9835253780693634e+01  6.2499279757536513e+01  6.5495549873073941e+01  6.5462840514028983e+01  6.8915683234038994e+01  6.8946916927054403e+01  6.8933322215222731e+01  6.4257628703194825e+01  7.5907323901619918e+01  6.8956122176952391e+01  6.5419676715547126e+01  6.0558813789578444e+01  7.0135440479563883e+01  6.4633489695253317e+01  6.9494293363823161e+01  7.2992173097370141e+01  6.8903434474248741e+01  6.5593898459521711e+01  6.8875115987091732e+01  6.3323563625971374e+01  6.1782960298136139e+01  6.1803209400909431e+01  6.1386433905713375e+01  7.3906812138261117e+01  6.4444596395429201e+01  7.5212780915694012e+01  6.1546930976953718e+01  6.8795862656429335e+01  6.5678973519465885e+01  6.9392938339212677e+01  7.0089929480091470e+01  5.9933701283836839e+01  6.4805485039109627e+01  7.5192350632914312e+01  6.1972373338457189e+01  6.5315198216956190e+01  6.2951058682617528e+01  7.2457966071513866e+01  6.7622307891765672e+01  6.4075475718624588e+01  6.4701859601728955e+01  6.3907995246563658e+01  6.5588221994688908e+01  7.4001702723813381e+01  7.1268377414076554e+01  6.7034889167038699e+01  6.6053018129673504e+01  6.5790817354166307e+01  6.6256947660344949e+01  6.6330568112555895e+01  6.4381512688944269e+01  6.8484720564976854e+01  6.8829278799379011e+01  6.7218509696543990e+01  6.5594801297164480e+01  6.8873471347810764e+01  6.5702046127594201e+01  7.3155839649626117e+01  6.8572482514272963e+01  7.0792389148965711e+01  7.0743114703582961e+01  7.0992586555381521e+01  6.6097382620558562e+01  6.5680187314900238e+01  6.2367809114285791e+01  6.2379561760625734e+01  6.2186802713875885e+01  6.6925571499338560e+01  6.0350482466645197e+01  6.5584512952749336e+01  6.7555415238010625e+01  7.5229749305373801e+01  7.5436747171885315e+01  7.4459047943148803e+01  6.7420961080625730e+01  6.7648614311066112e+01  6.7316165329046044e+01  6.5605631556822033e+01  6.3488395870209594e+01  7.4135526233763358e+01  7.2466500025657780e+01  6.0389267247386691e+01  7.0994243380791843e+01  7.1372219696002091e+01  6.5866851097059680e+01  7.3864891049098134e+01  6.2834121770990564e+01  7.1482537683638682e+01  6.2673999115130840e+01  7.1550326022263178e+01  6.5545706441508571e+01  6.5806875949183492e+01  6.3748035997784498e+01  7.2687005074129559e+01  6.3636049274131565e+01  6.2581127235497853e+01  6.6076047340131680e+01  6.5703946532942467e+01  7.2700689977484373e+01  6.4502841650169273e+01  6.7459870090491634e+01  7.0675142867766141e+01  6.7458840234928033e+01  6.3682359114811845e+01  7.1404837559964520e+01  5.9841270138399722e+01  7.5877665611330897e+01  7.09