<?xml version="1.0"?>
<VTKFile type="UnstructuredGrid"  version="0.1"  >
<UnstructuredGrid>
<Piece  NumberOfPoints="2331" NumberOfCells="4248">
<Points>
<DataArray  type="Float64"  NumberOfComponents="3"  format="ascii">0 0.3 0  0 0 0  0.04999999999999999 0 0  0.0514582251803892 0.02410733605106462 0  0.0558116365147896 0.04786313285751154 0  0.06299675146291706 0.07092097740850717 0  0.07290879486935808 0.09294463440875382 0  0.08540322682126872 0.1136129493462312 0  0.1002978503657798 0.132624531648159 0  0.117375468351841 0.1497021496342203 0  0.1363870506537689 0.1645967731787313 0  0.1570553655912463 0.177091205130642 0  0.1790790225914929 0.187003248537083 0  0.2021368671424885 0.1941883634852104 0  0.2258926639489354 0.1985417748196108 0  0.25 0.2 0  0.2741073360510646 0.1985417748196108 0  0.2978631328575116 0.1941883634852104 0  0.3209209774085071 0.187003248537083 0  0.3429446344087537 0.177091205130642 0  0.3636129493462312 0.1645967731787313 0  0.3826245316481591 0.1497021496342202 0  0.3997021496342202 0.132624531648159 0  0.4145967731787313 0.1136129493462312 0  0.427091205130642 0.09294463440875371 0  0.4370032485370829 0.07092097740850713 0  0.4441883634852104 0.04786313285751155 0  0.4485417748196108 0.02410733605106461 0  0.45 0 0  0.55 0 0  0.5514582251803892 0.02410733605106462 0  0.5558116365147896 0.04786313285751154 0  0.5629967514629171 0.07092097740850717 0  0.5729087948693581 0.09294463440875382 0  0.5854032268212688 0.1136129493462312 0  0.6002978503657798 0.132624531648159 0  0.617375468351841 0.1497021496342203 0  0.6363870506537689 0.1645967731787313 0  0.6570553655912463 0.177091205130642 0  0.6790790225914929 0.187003248537083 0  0.7021368671424885 0.1941883634852104 0  0.7258926639489354 0.1985417748196108 0  0.75 0.2 0  0.7741073360510646 0.1985417748196108 0  0.7978631328575116 0.1941883634852104 0  0.8209209774085071 0.187003248537083 0  0.8429446344087537 0.177091205130642 0  0.8636129493462312 0.1645967731787313 0  0.8826245316481591 0.1497021496342202 0  0.8997021496342202 0.132624531648159 0  0.9145967731787312 0.1136129493462312 0  0.927091205130642 0.09294463440875371 0  0.9370032485370829 0.07092097740850713 0  0.9441883634852104 0.04786313285751155 0  0.9485417748196108 0.02410733605106461 0  0.95 0 0  1 0 0  1 0.3 0  0.9758926639489353 0.3014582251803892 0  0.9521368671424885 0.3058116365147896 0  0.9290790225914928 0.3129967514629171 0  0.9070553655912461 0.3229087948693581 0  0.8863870506537688 0.3354032268212687 0  0.867375468351841 0.3502978503657798 0  0.8502978503657798 0.367375468351841 0  0.8354032268212687 0.3863870506537689 0  0.822908794869358 0.4070553655912464 0  0.8129967514629171 0.4290790225914929 0  0.8058116365147896 0.4521368671424885 0  0.8014582251803892 0.4758926639489354 0  0.8 0.4999999999999999 0  0.8014582251803892 0.5241073360510646 0  0.8058116365147896 0.5478631328575115 0  0.8129967514629171 0.5709209774085071 0  0.8229087948693581 0.5929446344087538 0  0.8354032268212688 0.6136129493462312 0  0.8502978503657798 0.632624531648159 0  0.867375468351841 0.6497021496342202 0  0.8863870506537689 0.6645967731787313 0  0.9070553655912463 0.677091205130642 0  0.9290790225914929 0.6870032485370829 0  0.9521368671424885 0.6941883634852104 0  0.9758926639489354 0.6985417748196108 0  1 0.7 0  1 1 0  0.95 1 0  0.9485417748196108 0.9758926639489353 0  0.9441883634852104 0.9521368671424885 0  0.9370032485370829 0.9290790225914928 0  0.927091205130642 0.9070553655912463 0  0.9145967731787312 0.8863870506537688 0  0.8997021496342201 0.8673754683518409 0  0.882624531648159 0.8502978503657798 0  0.863612949346231 0.8354032268212686 0  0.8429446344087537 0.822908794869358 0  0.8209209774085071 0.8129967514629171 0  0.7978631328575114 0.8058116365147896 0  0.7741073360510646 0.8014582251803892 0  0.75 0.8 0  0.7258926639489353 0.8014582251803892 0  0.7021368671424885 0.8058116365147896 0  0.6790790225914928 0.8129967514629171 0  0.6570553655912461 0.8229087948693581 0  0.6363870506537688 0.8354032268212688 0  0.617375468351841 0.8502978503657798 0  0.6002978503657798 0.867375468351841 0  0.5854032268212687 0.8863870506537689 0  0.572908794869358 0.9070553655912463 0  0.5629967514629171 0.9290790225914929 0  0.5558116365147896 0.9521368671424885 0  0.5514582251803892 0.9758926639489355 0  0.55 0.9999999999999999 0  0.45 0.9999999999999999 0  0.4485417748196108 0.9758926639489353 0  0.4441883634852104 0.9521368671424885 0  0.4370032485370829 0.9290790225914928 0  0.427091205130642 0.9070553655912463 0  0.4145967731787313 0.8863870506537688 0  0.3997021496342201 0.8673754683518409 0  0.382624531648159 0.8502978503657798 0  0.363612949346231 0.8354032268212686 0  0.3429446344087536 0.822908794869358 0  0.3209209774085071 0.8129967514629171 0  0.2978631328575115 0.8058116365147896 0  0.2741073360510646 0.8014582251803892 0  0.25 0.8 0  0.2258926639489353 0.8014582251803892 0  0.2021368671424885 0.8058116365147896 0  0.1790790225914928 0.8129967514629171 0  0.1570553655912462 0.8229087948693581 0  0.1363870506537688 0.8354032268212688 0  0.117375468351841 0.8502978503657798 0  0.1002978503657797 0.867375468351841 0  0.08540322682126869 0.8863870506537689 0  0.07290879486935797 0.9070553655912463 0  0.06299675146291703 0.9290790225914929 0  0.05581163651478957 0.9521368671424885 0  0.0514582251803892 0.9758926639489355 0  0.04999999999999999 0.9999999999999999 0  0 1 0  -0 0.7000000000000001 0  0.0241073360510646 0.6985417748196108 0  0.04786313285751161 0.6941883634852104 0  0.07092097740850711 0.6870032485370829 0  0.09294463440875372 0.677091205130642 0  0.1136129493462312 0.6645967731787312 0  0.1326245316481591 0.6497021496342202 0  0.1497021496342202 0.632624531648159 0  0.1645967731787313 0.6136129493462312 0  0.177091205130642 0.5929446344087537 0  0.187003248537083 0.5709209774085071 0  0.1941883634852104 0.5478631328575115 0  0.1985417748196108 0.5241073360510646 0  0.2 0.5 0  0.1985417748196108 0.4758926639489353 0  0.1941883634852104 0.4521368671424885 0  0.1870032485370829 0.4290790225914928 0  0.177091205130642 0.4070553655912463 0  0.1645967731787313 0.3863870506537688 0  0.1497021496342202 0.3673754683518409 0  0.132624531648159 0.3502978503657798 0  0.113612949346231 0.3354032268212686 0  0.09294463440875361 0.322908794869358 0  0.07092097740850711 0.3129967514629171 0  0.04786313285751148 0.3058116365147896 0  0.02410733605106464 0.3014582251803892 0  0.6985417748196108 0.5241073360510646 0  0.7 0.5 0  0.6985417748196108 0.4758926639489353 0  0.6941883634852104 0.4521368671424885 0  0.6870032485370829 0.4290790225914928 0  0.677091205130642 0.4070553655912463 0  0.6645967731787312 0.3863870506537688 0  0.6497021496342201 0.3673754683518409 0  0.632624531648159 0.3502978503657798 0  0.613612949346231 0.3354032268212686 0  0.5929446344087537 0.322908794869358 0  0.5709209774085071 0.3129967514629171 0  0.5478631328575114 0.3058116365147896 0  0.5241073360510646 0.3014582251803892 0  0.4999999999999999 0.3 0  0.4758926639489353 0.3014582251803892 0  0.4521368671424885 0.3058116365147896 0  0.4290790225914928 0.3129967514629171 0  0.4070553655912462 0.3229087948693581 0  0.3863870506537688 0.3354032268212687 0  0.367375468351841 0.3502978503657798 0  0.3502978503657798 0.367375468351841 0  0.3354032268212687 0.3863870506537689 0  0.322908794869358 0.4070553655912464 0  0.3129967514629171 0.4290790225914929 0  0.3058116365147896 0.4521368671424885 0  0.3014582251803892 0.4758926639489354 0  0.3 0.4999999999999999 0  0.3014582251803892 0.5241073360510646 0  0.3058116365147896 0.5478631328575115 0  0.3129967514629171 0.5709209774085071 0  0.3229087948693581 0.5929446344087538 0  0.3354032268212687 0.6136129493462312 0  0.3502978503657798 0.632624531648159 0  0.367375468351841 0.6497021496342202 0  0.3863870506537689 0.6645967731787313 0  0.4070553655912463 0.677091205130642 0  0.4290790225914929 0.6870032485370829 0  0.4521368671424885 0.6941883634852104 0  0.4758926639489354 0.6985417748196108 0  0.4999999999999999 0.7 0  0.5241073360510646 0.6985417748196108 0  0.5478631328575116 0.6941883634852104 0  0.5709209774085071 0.6870032485370829 0  0.5929446344087537 0.677091205130642 0  0.6136129493462312 0.6645967731787312 0  0.6326245316481591 0.6497021496342202 0  0.6497021496342202 0.632624531648159 0  0.6645967731787312 0.6136129493462312 0  0.677091205130642 0.5929446344087537 0  0.6870032485370829 0.5709209774085071 0  0.6941883634852104 0.5478631328575115 0  0 0.15 0  1 0.15 0  1 0.85 0  0 0.8500000000000001 0  0 0.075 0  1 0.075 0  1 0.925 0  0 0.925 0  0.5 0.8127595604293815 0  0.5069440078039168 0.190422209288238 0  0.25 0.3127595604293815 0  0.756944007803917 0.3095777907117619 0  0.756944007803917 0.6904222092882382 0  0.25 0.6872404395706185 0  0 0.225 0  0.4255768646051012 0.2241073097134061 0  1 0.7749999999999999 0  0.6773391559270888 0.2766774022734219 0  1 0.225 0  0.6755768646051011 0.7241073097134062 0  0 0.7750000000000001 0  0.5818971135297744 0.2287925518358889 0  0.8318971135297746 0.728792551835889 0  0.1659156081861886 0.7301636995921477 0  0.08376842746533225 0.2299656297760495 0  0.4236002201977974 0.7746535834185855 0  0.0840843918138115 0.7698363004078523 0  0.3340843918138113 0.7301636995921477 0  0.3340843918138114 0.2698363004078523 0  0.9159156081861887 0.2301636995921477 0  0.5840843918138116 0.7698363004078522 0  0.1659156081861887 0.2698363004078523 0  0.9162315725346678 0.7700343702239506 0  0.8340843918138114 0.2698363004078523 0  0.75 0.6146645247768686 0  0.5 0.1125158665330878 0  0.75 0.3874841334669124 0  0.2504983345544904 0.6122915843562002 0  0.2504983345544902 0.3877084156437999 0  0.5 0.8879783056303169 0  0.7005361650220154 0.3333055947145943 0  0.70416808765371 0.6599554817221275 0  0.449930214263529 0.1678187287522426 0  0.2247310981387008 0.7415600637745463 0  0.5155081196221678 0.7563797802146907 0  0.2752689018612993 0.2584399362254537 0  0.05605196690611226 0.8246131191226815 0  0.9439480330938878 0.1
[...]
<PointData  Scalars="Temperature"> 
<DataArray  type="Float64"  Name="Temperature"  format="ascii">8.6106558766462655e+01  8.8426728856323180e+01  8.8422894070176596e+01  8.8370028647301126e+01  8.8222193045845003e+01  8.7992267534265295e+01  8.7684669827213952e+01  8.7302495636435680e+01  8.6849288768494105e+01  8.6318230543125864e+01  8.5694122165454573e+01  8.4983541857117984e+01  8.4206380481853259e+01  8.3378822371156190e+01  8.2516178262835751e+01  8.1638994718058797e+01  8.0748756215048417e+01  7.9841634762434140e+01  7.8935595965116903e+01  7.8026774167613951e+01  7.7160562300046081e+01  7.6367766391089148e+01  7.5681456906094027e+01  7.5146933430663509e+01  7.4760639030341892e+01  7.4517599229069560e+01  7.4380490574301405e+01  7.4320863990172697e+01  7.4305236911598357e+01  7.4142510354909092e+01  7.4100261420157679e+01  7.3967706468751274e+01  7.3715896247136925e+01  7.3319972220306113e+01  7.2742510145506898e+01  7.1980575048980583e+01  7.1047540613843822e+01  6.9974561422364516e+01  6.8809600026908328e+01  6.7619093066593379e+01  6.6468606421951904e+01  6.5412143789898948e+01  6.4480377934271289e+01  6.3682068615627578e+01  6.3010637489034664e+01  6.2459294475087823e+01  6.2000192252020362e+01  6.1622165999995772e+01  6.1313575144987340e+01  6.1058172917905033e+01  6.0848914338316703e+01  6.0676035899105081e+01  6.0538372531317137e+01  6.0435857791854694e+01  6.0369958491315010e+01  6.0346431743585043e+01  6.0344522131682268e+01  6.1292040344384425e+01  6.1329728565357364e+01  6.1437493916379566e+01  6.1600085123530093e+01  6.1788265335093584e+01  6.1963787568233130e+01  6.2076979259757941e+01  6.2080202132472955e+01  6.1934856599527301e+01  6.1625135077988467e+01  6.1122513324947697e+01  6.0467130214414773e+01  5.9696664971062667e+01  5.8869031367319209e+01  5.8045720605239069e+01  5.7272528844675271e+01  5.6554696088125596e+01  5.5897550001630947e+01  5.5272421494412477e+01  5.4669775927931362e+01  5.4094647155355958e+01  5.3541737400380846e+01  5.3040342317423843e+01  5.2611728479914994e+01  5.2285332868490329e+01  5.2083324594339580e+01  5.2012374027932921e+01  5.0464325063434238e+01  5.0466704369211463e+01  5.0501676413409299e+01  5.0599787344270183e+01  5.0752561092457384e+01  5.0957846501209133e+01  5.1213359707867987e+01  5.1519541984713946e+01  5.1881137099284501e+01  5.2301028837033236e+01  5.2784548991380213e+01  5.3324851374360669e+01  5.3903867204719575e+01  5.4518619877412497e+01  5.5145291505740225e+01  5.5798752625412661e+01  5.6470456668918246e+01  5.7156942398810507e+01  5.7843773619986564e+01  5.8512818749795599e+01  5.9116310912901127e+01  5.9644111443474145e+01  6.0049338366967270e+01  6.0343521299028488e+01  6.0521730626173742e+01  6.0614157813996428e+01  6.0654723694549055e+01  6.0664327904321340e+01  6.0795531559851099e+01  6.0835775919840160e+01  6.0954610878444456e+01  6.1170573964634706e+01  6.1509992762970199e+01  6.2005635833721179e+01  6.2652089607753901e+01  6.3447824293015380e+01  6.4353183864735954e+01  6.5338325157984514e+01  6.6333182249282459e+01  6.7276527266690536e+01  6.8130491154919454e+01  6.8845597418417100e+01  6.9424629755179680e+01  6.9866083100970201e+01  7.0195749429955342e+01  7.0436661609946967e+01  7.0613427569798674e+01  7.0744883985162076e+01  7.0843646553737400e+01  7.0918506445641356e+01  7.0977589472404475e+01  7.1022556534992674e+01  7.1055827532862168e+01  7.1076069493242159e+01  7.1083686807988741e+01  7.1083933783472006e+01  7.0841713493924146e+01  7.0833271765380587e+01  7.0811976161739452e+01  7.0788760456673828e+01  7.0782606070635708e+01  7.0822403918066669e+01  7.0944995255989198e+01  7.1188912314828457e+01  7.1594885209108199e+01  7.2180713675373440e+01  7.2963896239853398e+01  7.3923244397837507e+01  7.5022447732350813e+01  7.6186008233351671e+01  7.7348973529937282e+01  7.8454604320674093e+01  7.9479658272736032e+01  8.0429889780772655e+01  8.1336948314792750e+01  8.2212248646392496e+01  8.3060001142689572e+01  8.3859840753566132e+01  8.4592828114933781e+01  8.5222636008237984e+01  8.5697305731201325e+01  8.6000443042097046e+01  5.8170443791632501e+01  5.8973308933875330e+01  5.9851804229231291e+01  6.0769618710903536e+01  6.1707691331630627e+01  6.2672010209490971e+01  6.3687247472070453e+01  6.4776253965867397e+01  6.5958393499900509e+01  6.7203369508583677e+01  6.8497176440665314e+01  6.9818145078685859e+01  7.1117293509209034e+01  7.2379574245922086e+01  7.3591628473876725e+01  7.4745781892324231e+01  7.5828576382264927e+01  7.6837040674695444e+01  7.7741349879484943e+01  7.8514473609367798e+01  7.9092342882702823e+01  7.9451227805547134e+01  7.9545561564892111e+01  7.9361709377513776e+01  7.8884470531829649e+01  7.8151118332585284e+01  7.7196614639491131e+01  7.6082969634223559e+01  7.4894675526202931e+01  7.3697126078188802e+01  7.2535459523156149e+01  7.1389809029733385e+01  7.0277239791433388e+01  6.9166940603348053e+01  6.8035121431477606e+01  6.6890142631009169e+01  6.5722089306773000e+01  6.4580008955692236e+01  6.3462377895311519e+01  6.2405033945716170e+01  6.1401361112317488e+01  6.0459804053551132e+01  5.9578721700105852e+01  5.8777383121262957e+01  5.8055004488478005e+01  5.7444527405559853e+01  5.6977929892172575e+01  5.6676354301161624e+01  5.6570952710199677e+01  5.6675059286304013e+01  5.6990296900444484e+01  5.7499358639010296e+01  8.7304265607333946e+01  6.0831993445935375e+01  5.1208449926671200e+01  7.0935347203807567e+01  8.8082761339616852e+01  6.0497145254445876e+01  5.0692310595626282e+01  7.1036574482984022e+01  6.1154162412135761e+01  7.3614230733688260e+01  8.1121887139046251e+01  6.3477838106901956e+01  5.5339672823852247e+01  6.9956070504447283e+01  8.6515473564787584e+01  7.6139829213892497e+01  5.1735035644314380e+01  6.6206844014657790e+01  6.1144148353954471e+01  5.6701272136070408e+01  7.0861275183205620e+01  7.0703341076717905e+01  5.3770300050337390e+01  7.0406418071355617e+01  8.5810001657697484e+01  6.3556218750096008e+01  7.0742909050898675e+01  6.7177252805093232e+01  7.9217047080741708e+01  6.1469276818966947e+01  5.9045598480277199e+01  8.3617325210696464e+01  5.2215460528079248e+01  6.2429954619033921e+01  5.6204463097195848e+01  7.4040938598226603e+01  6.2159235165436584e+01  7.1759888936423096e+01  7.9945310809954165e+01  6.0921146193997224e+01  6.4326782955731858e+01  5.6221791361351876e+01  7.5086117766052126e+01  6.9644340872009494e+01  6.0843163570067212e+01  8.0802061135899450e+01  7.0856434564906209e+01  6.1067679919442220e+01  8.6779062178946376e+01  5.1594773983537166e+01  7.4250576220354176e+01  5.5609953379360391e+01  6.4671664701645753e+01  6.2317491265344785e+01  7.0723663213553351e+01  8.2221231524794291e+01  6.9029135987000231e+01  7.9906086024108035e+01  5.9922171897006081e+01  7.4174463771791153e+01  6.0655348814050924e+01  5.7599761780660579e+01  7.8354053236704331e+01  7.4176733137476504e+01  6.0728578245610350e+01  6.0784141853179896e+01  8.2253154549045988e+01  6.8620319105038789e+01  7.2162048440760628e+01  5.5243798529565495e+01  6.2485882985434003e+01  6.8412533733885340e+01  7.7606309532310732e+01  7.8081178358994876e+01  5.7709731850400281e+01  5.8074096257062173e+01  6.8003739804856494e+01  5.4635086098491044e+01  6.3351916723713970e+01  5.9098144069392745e+01  7.4224750421334946e+01  7.6376847254308103e+01  6.5338824145785296e+01  6.5587555596826164e+01  7.2507544244640343e+01  5.2892783653601825e+01  5.2966989434966543e+01  6.2098895451476913e+01  8.4999883478824884e+01  7.0825368120545633e+01  6.1729737369191746e+01  7.0505496495626048e+01  8.4585749764776722e+01  7.0685078927696836e+01  6.1304063254626961e+01  6.1973967431581528e+01  5.2058895803214455e+01  8.6033375745892940e+01  6.0795792416325561e+01  5.1102659816847527e+01  8.7467589369122010e+01  7.0941532469619730e+01  6.2203659599540345e+01  5.4583006475071159e+01  7.3188948889540825e+01  5.5981944197078221e+01  5.8955650632955575e+01  6.7528668061011345e+01  8.3441099704371254e+01  6.1394281041188187e+01  7.9024655419328894e+01  7.0729109058896270e+01  7.0728818342996107e+01  8.6098740294485992e+01  5.2077490727247195e+01  7.1437952681491495e+01  8.1006563821594469e+01  6.0638881032662432e+01  5.3950193600849147e+01  8.0297736491767651e+01  7.0414449096698235e+01  6.6211334796394283e+01  6.6174000886860142e+01  6.3780375417437824e+01  7.5747545715777747e+01  5.7048270922988081e+01  7.6587093744804335e+01  5.6698015770017214e+01  6.1586815694156783e+01  6.3191531314734533e+01  7.0499547251315732e+01  6.4692373401704103e+01  5.3874853651419436e+01  7.0059194252711336e+01  7.0026966806697985e+01  7.9400828559744809e+01  6.7388406080396706e+01  8.3349625459637622e+01  6.2160386966260070e+01  5.9179243735062300e+01  7.4756090187511745e+01  8.6448961491508811e+01  6.2616182120866391e+01  6.1202732829654884e+01  7.0832568538450488e+01  6.0350457657286313e+01  7.0891629413511396e+01  6.1000811189493447e+01  6.2928333694929371e+01  5.1473544100108612e+01  7.4687512793467391e+01  6.3176764036120098e+01  6.3049065922490705e+01  7.4173566677069331e+01  8.6891962180842725e+01  5.6670942145467215e+01  5.6648314696459153e+01  5.5684676150701584e+01  7.2925665589801710e+01  7.9888754345319200e+01  7.0812468365498361e+01  7.9701475756258162e+01  7.0776454670462073e+01  7.4359360400771521e+01  7.3859772767984055e+01  6.1329601738375963e+01  6.1813663890409714e+01  6.0346020034713625e+01  6.0649117135416653e+01  6.1143223979458384e+01  5.1486198950035295e+01  7.0846364486795480e+01  5.0934678059102460e+01  6.1244951573083185e+01  8.6226905634999838e+01  6.0385028020477826e+01  8.8335930233351064e+01  6.0655624747094500e+01  6.0596930317084968e+01  8.7718736163248693e+01  5.0524297592335060e+01  7.1071303210570605e+01  5.1928659900557207e+01  7.0987824931526816e+01  7.1004065747476432e+01  7.9103880418155200e+01  7.2718869708859728e+01  7.0145844798960681e+01  8.0126031606510892e+01  6.1473157319004457e+01  5.2471406560070463e+01  6.8621333043778904e+01  8.2038956429905042e+01  5.4944457498438183e+01  5.5855827469395884e+01  6.1886255401247496e+01  5.1803812345542653e+01  5.9854622268607933e+01  7.3000923261102116e+01  7.0798314489408298e+01  8.0921364460075907e+01  8.4574765723558031e+01  6.9417037324088085e+01  7.3168449161850504e+01  6.3718467206190404e+01  6.2797898786486776e+01  6.0183514468694604e+01  5.6496612890443721e+01  5.6653736316498843e+01  5.0832297484583222e+01  8.7871751193674669e+01  8.5407665065276589e+01  5.4626474989409445e+01  6.9119407224397222e+01  8.1984086847101352e+01  6.2004581505909442e+01  7.1940091506858252e+01  5.6251171496825492e+01  6.1480412648223094e+01  6.4151825012767702e+01  7.7085292891031628e+01  5.7337750092227154e+01  6.4302469675118601e+01  8.8211418641029340e+01  6.0466191008801424e+01  5.0607520575132718e+01  7.1053596422585883e+01  6.4812879023757120e+01  5.7197828668730565e+01  7.5243136629708829e+01  7.0875138091713040e+01  7.0902685215419567e+01  6.0982863316788844e+01  6.0942305621786538e+01  6.6230051144046243e+01  8.6674284463150144e+01  8.6313278565495693e+01  8.7045046904534303e+01  7.5786618756196063e+01  7.5554974043947951e+01  8.5536805821370777e+01  6.1961104929623872e+01  7.0748246884121698e+01  7.0557676936335881e+01  6.1736995577730504e+01  6.5353707868813373e+01  6.3989718829440399e+01  7.7524791890902023e+01  5.7680200764608799e+01  5.1329744518219080e+01  5.6470906025625411e+01  5.5825657682434283e+01  7.1222025277413380e+01  6.0677824171287547e+01  6.2195287562190160e+01  7.4269847993425529e+01  7.4152721514131798e+01  5.9857909256385220e+01  6.0311803399242358e+01  7.7385089236821173e+01  7.7927882989896005e+01  6.5445225638813056e+01  5.3373380223888852e+01  6.0846253303296820e+01  6.8207900582050385e+01  7.9947550910872266e+01  6.6384539072489204e+01  8.2801570255089956e+01  6.8225949945136904e+01  6.9297736402314470e+01  7.0129994345757751e+01  8.0412158917503376e+01  8.1374537959079746e+01  6.9573769866840180e+01  5.9464498468316712e+01  5.9910122580186744e+01  8.0471195376437947e+01  7.0519127302291579e+01  7.9676575119691307e+01  8.2585867778151183e+01  6.8676823838020084e+01  7.1170750985943002e+01  6.0519713108299690e+01  5.8337149915889349e+01  5.8457857668251322e+01  7.5496360942937827e+01  7.5284360719078961e+01  8.4289171039284753e+01  5.6240094953524881e+01  5.5973684685048639e+01  5.5483637584267868e+01  7.6809062626832016e+01  5.7328067421459167e+01  6.1071111901050450e+01  7.6668109313590406e+01  6.2250631332643430e+01  6.2790746075747983e+01  6.3940848749067165e+01  7.4189703599004574e+01  7.3915301960416130e+01  6.5282589773379073e+01  6.7111441038136846e+01  5.1877207400544421e+01  8.5354068132224029e+01  6.2146957809354014e+01  7.2393192989198994e+01  5.3050607838395280e+01  5.2523097903538279e+01  6.2920554521963020e+01  6.2481784037088687e+01  6.2189701717293190e+01  7.0274045671836973e+01  7.8157266146617715e+01  7.8598611333726964e+01  5.8226832131177474e+01  5.8474536074426453e+01  6.4797685442133229e+01  7.1091127510573102e+01  7.3702655366127274e+01  6.9617409388453908e+01  6.1735344811433414e+01  5.6727093064009381e+01  6.1291911938934518e+01  7.0796521059543508e+01  7.1816559725891508e+01  5.0465529329754951e+01  6.0345418686541613e+01  8.8425116258280397e+01  7.1083894095231273e+01  7.4368333240513550e+01  6.9155104864269461e+01  7.8443496452604506e+01  6.3046701026354867e+01  5.7110895713176319e+01  6.1973828355259208e+01  7.4018051336742346e+01  7.4322078346800566e+01  7.9252759476505375e+01  6.3170173040750988e+01  5.3465854752202596e+01  5.3125162264277741e+01  5.2636867803508196e+01  5.3418928503906450e+01  5.8507736973982247e+01  7.8614686187147868e+01  7.2186735437946425e+01  6.0739524413518900e+01  6.0683876594513741e+01  6.0856112830967987e+01  5.8156067643499789e+01  5.7323342055408474e+01  7.4143619656693431e+01  7.3823661036047270e+01  8.4021326586288779e+01  7.9520418113583972e+01  6.4571344483612492e+01  8.5233736732282580e+01  7.0454615780297544e+01  6.6364804326187169e+01  6.1476414650290820e+01  8.6340702149837199e+01  7.5209303178283406e+01  5.5281377735988976e+01  5.5222796791767301e+01  5.1745868500932417e+01  6.9913730675878980e+01  8.3011186748844750e+01  6.7912571991785839e+01  7.0356587316308307e+01  7.0558157583771475e+01  7.0645585529670839e+01  7.6774434526208637e+01  5.9401485010416863e+01  8.7092266012960366e+01  5.2415549683440183e+01  7.8950078557326336e+01  6.7301379619502399e+01  7.0867850081603962e+01  6.1065435120449933e+01  5.5758526244636911e+01  6.5324364975953060e+01  7.9356558382938147e+01  5.9386549847209459e+01  8.1793362716969398e+01  6.0628900503756697e+01  5.1866975327017826e+01  7.0757750389565956e+01  6.7294514335712080e+01  7.8316582944254378e+01  6.1585700024964481e+01  7.4113917798294310e+01  6.0387553436491864e+01  7.1074791024300211e+01  8.8362148777697072e+01  5.0506492610306779e+01  6.9088733105741042e+01  6.2553039220966880e+01  5.2868817816340915e+01  6.2272313843299010e+01  7.0613892206064946e+01  6.7038360670682977e+01  6.1507907542622860e+01  5.8691739474908822e+01  8.5750431105399826e+01  7.0879849512192891e+01  7.0724959462040616e+01  6.9723051476679984e+01  6.2851328300672037e+01  6.5507017844345498e+01  6.6661486353946401e+01  7.0822859075177277e+01  6.1360641235447027e+01  7.0846308152408241e+01  6.1732406787441434e+01  7.2850003061726923e+01  8.1215208111347877e+01  7.1936648057932146e+01  5.4342914577460547e+01  8.1591631865448818e+01  6.1045187440500982e+01  5.4118071440450898e+01  5.5103343218076787e+01  5.5031342959826034e+01  6.4272805508184859e+01  6.1001032413906628e+01  5.2029246438545897e+01  7.3665027998298370e+01  8.2823748958639229e+01  6.7765097678237808e+01  6.1229606244328444e+01  5.6532047949462836e+01  7.1624554643004814e+01  7.0648975117672435e+01  5.1607714481869792e+01  8.0730477009678182e+01  6.9651346045270429e+01  7.4167878763416866e+01  6.0774882029710199e+01  7.4281705332142678e+01  7.3320407273733480e+01  8.3789202586504118e+01  6.1205095856138570e+01  7.0811431378934259e+01  7.0786033139480878e+01  6.1345789068253431e+01  6.1201521732243499e+01  6.1194972323326908e+01  5.1761512364524606e+01  8.6757773498234883e+01  6.9314589572264026e+01  8.0625752255158886e+01  6.0633191395977022e+01  7.3378406289836818e+01  7.1574729823031262e+01  6.8385285407088276e+01  7.5195994040135417e+01  7.9667265984841706e+01  8.1605337261504260e+01  6.1904756618232646e+01  7.0967413863777622e+01  6.0759314353353652e+01  5.3614475245669190e+01  7.0927229446669458e+01  6.2702690366573393e+01  8.4943216231029837e+01  6.1682279497027196e+01  8.4152425877509074e+01  8.4693814958649014e+01  5.2245146755270476e+01  5.2021911754326965e+01  8.6090254599106842e+01  8.6128409709500602e+01  7.7693305272050097e+01  6.3031907397572176e+01  6.1237215681233060e+01  6.2022510669613595e+01  6.2925815406788985e+01  6.1508138217527900e+01  6.4025543750240871e+01  5.1430451255896529e+01  6.0272424146061368e+01  6.4491245504513387e+01  7.9943599155222074e+01  7.7481790797480969e+01  6.2393063547203198e+01  5.9864498629889155e+01  6.0484633065411202e+01  6.2396510371485491e+01  5.5966718735025694e+01  7.9349352644236646e+01  7.4609237410862178e+01  7.0862601413589431e+01  7.1713734664531870e+01  7.1414273304326684e+01  8.0544418512461050e+01  5.1069018876358150e+01  8.7514371182893726e+01  8.7328248881251653e+01  8.7346886119088893e+01  5.1243072260853509e+01  5.0967700136263318e+01  5.3795452196893045e+01  6.9711820736088711e+01  5.4460427351366008e+01  7.3193736623606100e+01  5.6217330267129597e+01  6.0929784782499816e+01  6.0827121725063158e+01  7.0902912320136352e+01  7.0960794015352505e+01  7.0935989883606723e+01  6.0625338642671970e+01  8.7672374852294709e+01  7.0977096167784225e+01  6.0687641313701548e+01  5.2416385226847893e+01  7.2759995370226704e+01  6.1466555445923142e+01  7.1242803632969171e+01  8.0393767614990651e+01  7.1056011955583969e+01  6.1277394187505180e+01  7.0842592097791993e+01  5.7781901167482147e+01  5.4881626705419698e+01  5.4956655457764192e+01  5.4095867200837631e+01  8.2579750689500074e+01  6.1030783211493272e+01  8.5906110569307003e+01  5.4406132349489070e+01  7.0668212116658481e+01  6.1491375990071219e+01  7.2172156856199138e+01  7.2666463037938328e+01  5.1153772740468689e+01  6.1846972017323964e+01  8.5861914055841012e+01  5.5415196914564589e+01  6.0353635733017704e+01  5.7595479365769691e+01  7.8786722152628698e+01  6.8145687587112434e+01  5.9170500606101406e+01  6.1603575951054800e+01  5.9799872520575633e+01  6.2180540743081679e+01  8.2877968033199380e+01  7.6475743101135848e+01  6.6834388945740059e+01  6.3164433839765067e+01  6.2083697351577641e+01  6.3314690778253443e+01  6.3726445730262256e+01  6.0893944400896963e+01  7.0025291798213985e+01  7.0807966240876326e+01  6.7262726253567507e+01  6.1278402394821320e+01  7.0839023356200684e+01  6.1617812042182614e+01  8.0752024019113477e+01  7.0297293692586450e+01  7.4373995565498049e+01  7.4263987135391488e+01  7.4913550345884687e+01  6.2702010410919478e+01  6.3801853763202836e+01  5.6179182814933696e+01  5.6265623544801301e+01  5.5839943319917289e+01  6.5074659441366023e+01  5.1998419723964631e+01  6.1210622970382218e+01  6.6529539049264045e+01  8.5951867429715790e+01  8.6476327701457734e+01  8.3991294886727758e+01  6.6111050001463113e+01  6.8225820427486212e+01  6.7476646279213981e+01  6.1974983878266350e+01  5.8851523516506184e+01  8.3224707687826651e+01  7.8874512333401924e+01  5.2081540800558898e+01  7.4989084732063048e+01  7.5953246733860297e+01  6.2166373844044259e+01  8.2501982221214575e+01  5.7274113928080439e+01  7.6215898306597097e+01  5.6926801882924963e+01  7.6376814666584536e+01  6.3504062444960248e+01  6.4090507244816664e+01  5.9443429195664983e+01  7.9378281365200166e+01  5.9159708278320068e+01  5.6777263821508960e+01  6.3142036664195814e+01  6.2374250208587029e+01  7.9502848065229401e+01  6.1172078772433153e+01  6.6248005222555960e+01  7.5119998986752847e+01  6.6341260034467268e+01  5.8439023016152383e+01  7.6055253284911245e+01  5.0967455444337418e+01  8.7596947435754572e+01  7.490