<?xml version="1.0"?>
<VTKFile type="UnstructuredGrid"  version="0.1"  >
<UnstructuredGrid>
<Piece  NumberOfPoints="2331" NumberOfCells="4248">
<Points>
<DataArray  type="Float64"  NumberOfComponents="3"  format="ascii">0 0.3 0  0 0 0  0.04999999999999999 0 0  0.0514582251803892 0.02410733605106462 0  0.0558116365147896 0.04786313285751154 0  0.06299675146291706 0.07092097740850717 0  0.07290879486935808 0.09294463440875382 0  0.08540322682126872 0.1136129493462312 0  0.1002978503657798 0.132624531648159 0  0.117375468351841 0.1497021496342203 0  0.1363870506537689 0.1645967731787313 0  0.1570553655912463 0.177091205130642 0  0.1790790225914929 0.187003248537083 0  0.2021368671424885 0.1941883634852104 0  0.2258926639489354 0.1985417748196108 0  0.25 0.2 0  0.2741073360510646 0.1985417748196108 0  0.2978631328575116 0.1941883634852104 0  0.3209209774085071 0.187003248537083 0  0.3429446344087537 0.177091205130642 0  0.3636129493462312 0.1645967731787313 0  0.3826245316481591 0.1497021496342202 0  0.3997021496342202 0.132624531648159 0  0.4145967731787313 0.1136129493462312 0  0.427091205130642 0.09294463440875371 0  0.4370032485370829 0.07092097740850713 0  0.4441883634852104 0.04786313285751155 0  0.4485417748196108 0.02410733605106461 0  0.45 0 0  0.55 0 0  0.5514582251803892 0.02410733605106462 0  0.5558116365147896 0.04786313285751154 0  0.5629967514629171 0.07092097740850717 0  0.5729087948693581 0.09294463440875382 0  0.5854032268212688 0.1136129493462312 0  0.6002978503657798 0.132624531648159 0  0.617375468351841 0.1497021496342203 0  0.6363870506537689 0.1645967731787313 0  0.6570553655912463 0.177091205130642 0  0.6790790225914929 0.187003248537083 0  0.7021368671424885 0.1941883634852104 0  0.7258926639489354 0.1985417748196108 0  0.75 0.2 0  0.7741073360510646 0.1985417748196108 0  0.7978631328575116 0.1941883634852104 0  0.8209209774085071 0.187003248537083 0  0.8429446344087537 0.177091205130642 0  0.8636129493462312 0.1645967731787313 0  0.8826245316481591 0.1497021496342202 0  0.8997021496342202 0.132624531648159 0  0.9145967731787312 0.1136129493462312 0  0.927091205130642 0.09294463440875371 0  0.9370032485370829 0.07092097740850713 0  0.9441883634852104 0.04786313285751155 0  0.9485417748196108 0.02410733605106461 0  0.95 0 0  1 0 0  1 0.3 0  0.9758926639489353 0.3014582251803892 0  0.9521368671424885 0.3058116365147896 0  0.9290790225914928 0.3129967514629171 0  0.9070553655912461 0.3229087948693581 0  0.8863870506537688 0.3354032268212687 0  0.867375468351841 0.3502978503657798 0  0.8502978503657798 0.367375468351841 0  0.8354032268212687 0.3863870506537689 0  0.822908794869358 0.4070553655912464 0  0.8129967514629171 0.4290790225914929 0  0.8058116365147896 0.4521368671424885 0  0.8014582251803892 0.4758926639489354 0  0.8 0.4999999999999999 0  0.8014582251803892 0.5241073360510646 0  0.8058116365147896 0.5478631328575115 0  0.8129967514629171 0.5709209774085071 0  0.8229087948693581 0.5929446344087538 0  0.8354032268212688 0.6136129493462312 0  0.8502978503657798 0.632624531648159 0  0.867375468351841 0.6497021496342202 0  0.8863870506537689 0.6645967731787313 0  0.9070553655912463 0.677091205130642 0  0.9290790225914929 0.6870032485370829 0  0.9521368671424885 0.6941883634852104 0  0.9758926639489354 0.6985417748196108 0  1 0.7 0  1 1 0  0.95 1 0  0.9485417748196108 0.9758926639489353 0  0.9441883634852104 0.9521368671424885 0  0.9370032485370829 0.9290790225914928 0  0.927091205130642 0.9070553655912463 0  0.9145967731787312 0.8863870506537688 0  0.8997021496342201 0.8673754683518409 0  0.882624531648159 0.8502978503657798 0  0.863612949346231 0.8354032268212686 0  0.8429446344087537 0.822908794869358 0  0.8209209774085071 0.8129967514629171 0  0.7978631328575114 0.8058116365147896 0  0.7741073360510646 0.8014582251803892 0  0.75 0.8 0  0.7258926639489353 0.8014582251803892 0  0.7021368671424885 0.8058116365147896 0  0.6790790225914928 0.8129967514629171 0  0.6570553655912461 0.8229087948693581 0  0.6363870506537688 0.8354032268212688 0  0.617375468351841 0.8502978503657798 0  0.6002978503657798 0.867375468351841 0  0.5854032268212687 0.8863870506537689 0  0.572908794869358 0.9070553655912463 0  0.5629967514629171 0.9290790225914929 0  0.5558116365147896 0.9521368671424885 0  0.5514582251803892 0.9758926639489355 0  0.55 0.9999999999999999 0  0.45 0.9999999999999999 0  0.4485417748196108 0.9758926639489353 0  0.4441883634852104 0.9521368671424885 0  0.4370032485370829 0.9290790225914928 0  0.427091205130642 0.9070553655912463 0  0.4145967731787313 0.8863870506537688 0  0.3997021496342201 0.8673754683518409 0  0.382624531648159 0.8502978503657798 0  0.363612949346231 0.8354032268212686 0  0.3429446344087536 0.822908794869358 0  0.3209209774085071 0.8129967514629171 0  0.2978631328575115 0.8058116365147896 0  0.2741073360510646 0.8014582251803892 0  0.25 0.8 0  0.2258926639489353 0.8014582251803892 0  0.2021368671424885 0.8058116365147896 0  0.1790790225914928 0.8129967514629171 0  0.1570553655912462 0.8229087948693581 0  0.1363870506537688 0.8354032268212688 0  0.117375468351841 0.8502978503657798 0  0.1002978503657797 0.867375468351841 0  0.08540322682126869 0.8863870506537689 0  0.07290879486935797 0.9070553655912463 0  0.06299675146291703 0.9290790225914929 0  0.05581163651478957 0.9521368671424885 0  0.0514582251803892 0.9758926639489355 0  0.04999999999999999 0.9999999999999999 0  0 1 0  -0 0.7000000000000001 0  0.0241073360510646 0.6985417748196108 0  0.04786313285751161 0.6941883634852104 0  0.07092097740850711 0.6870032485370829 0  0.09294463440875372 0.677091205130642 0  0.1136129493462312 0.6645967731787312 0  0.1326245316481591 0.6497021496342202 0  0.1497021496342202 0.632624531648159 0  0.1645967731787313 0.6136129493462312 0  0.177091205130642 0.5929446344087537 0  0.187003248537083 0.5709209774085071 0  0.1941883634852104 0.5478631328575115 0  0.1985417748196108 0.5241073360510646 0  0.2 0.5 0  0.1985417748196108 0.4758926639489353 0  0.1941883634852104 0.4521368671424885 0  0.1870032485370829 0.4290790225914928 0  0.177091205130642 0.4070553655912463 0  0.1645967731787313 0.3863870506537688 0  0.1497021496342202 0.3673754683518409 0  0.132624531648159 0.3502978503657798 0  0.113612949346231 0.3354032268212686 0  0.09294463440875361 0.322908794869358 0  0.07092097740850711 0.3129967514629171 0  0.04786313285751148 0.3058116365147896 0  0.02410733605106464 0.3014582251803892 0  0.6985417748196108 0.5241073360510646 0  0.7 0.5 0  0.6985417748196108 0.4758926639489353 0  0.6941883634852104 0.4521368671424885 0  0.6870032485370829 0.4290790225914928 0  0.677091205130642 0.4070553655912463 0  0.6645967731787312 0.3863870506537688 0  0.6497021496342201 0.3673754683518409 0  0.632624531648159 0.3502978503657798 0  0.613612949346231 0.3354032268212686 0  0.5929446344087537 0.322908794869358 0  0.5709209774085071 0.3129967514629171 0  0.5478631328575114 0.3058116365147896 0  0.5241073360510646 0.3014582251803892 0  0.4999999999999999 0.3 0  0.4758926639489353 0.3014582251803892 0  0.4521368671424885 0.3058116365147896 0  0.4290790225914928 0.3129967514629171 0  0.4070553655912462 0.3229087948693581 0  0.3863870506537688 0.3354032268212687 0  0.367375468351841 0.3502978503657798 0  0.3502978503657798 0.367375468351841 0  0.3354032268212687 0.3863870506537689 0  0.322908794869358 0.4070553655912464 0  0.3129967514629171 0.4290790225914929 0  0.3058116365147896 0.4521368671424885 0  0.3014582251803892 0.4758926639489354 0  0.3 0.4999999999999999 0  0.3014582251803892 0.5241073360510646 0  0.3058116365147896 0.5478631328575115 0  0.3129967514629171 0.5709209774085071 0  0.3229087948693581 0.5929446344087538 0  0.3354032268212687 0.6136129493462312 0  0.3502978503657798 0.632624531648159 0  0.367375468351841 0.6497021496342202 0  0.3863870506537689 0.6645967731787313 0  0.4070553655912463 0.677091205130642 0  0.4290790225914929 0.6870032485370829 0  0.4521368671424885 0.6941883634852104 0  0.4758926639489354 0.6985417748196108 0  0.4999999999999999 0.7 0  0.5241073360510646 0.6985417748196108 0  0.5478631328575116 0.6941883634852104 0  0.5709209774085071 0.6870032485370829 0  0.5929446344087537 0.677091205130642 0  0.6136129493462312 0.6645967731787312 0  0.6326245316481591 0.6497021496342202 0  0.6497021496342202 0.632624531648159 0  0.6645967731787312 0.6136129493462312 0  0.677091205130642 0.5929446344087537 0  0.6870032485370829 0.5709209774085071 0  0.6941883634852104 0.5478631328575115 0  0 0.15 0  1 0.15 0  1 0.85 0  0 0.8500000000000001 0  0 0.075 0  1 0.075 0  1 0.925 0  0 0.925 0  0.5 0.8127595604293815 0  0.5069440078039168 0.190422209288238 0  0.25 0.3127595604293815 0  0.756944007803917 0.3095777907117619 0  0.756944007803917 0.6904222092882382 0  0.25 0.6872404395706185 0  0 0.225 0  0.4255768646051012 0.2241073097134061 0  1 0.7749999999999999 0  0.6773391559270888 0.2766774022734219 0  1 0.225 0  0.6755768646051011 0.7241073097134062 0  0 0.7750000000000001 0  0.5818971135297744 0.2287925518358889 0  0.8318971135297746 0.728792551835889 0  0.1659156081861886 0.7301636995921477 0  0.08376842746533225 0.2299656297760495 0  0.4236002201977974 0.7746535834185855 0  0.0840843918138115 0.7698363004078523 0  0.3340843918138113 0.7301636995921477 0  0.3340843918138114 0.2698363004078523 0  0.9159156081861887 0.2301636995921477 0  0.5840843918138116 0.7698363004078522 0  0.1659156081861887 0.2698363004078523 0  0.9162315725346678 0.7700343702239506 0  0.8340843918138114 0.2698363004078523 0  0.75 0.6146645247768686 0  0.5 0.1125158665330878 0  0.75 0.3874841334669124 0  0.2504983345544904 0.6122915843562002 0  0.2504983345544902 0.3877084156437999 0  0.5 0.8879783056303169 0  0.7005361650220154 0.3333055947145943 0  0.70416808765371 0.6599554817221275 0  0.449930214263529 0.1678187287522426 0  0.2247310981387008 0.7415600637745463 0  0.5155081196221678 0.7563797802146907 0  0.2752689018612993 0.2584399362254537 0  0.05605196690611226 0.8246131191226815 0  0.943948033093887
[...]
<PointData  Scalars="Temperature"> 
<DataArray  type="Float64"  Name="Temperature"  format="ascii">8.2527796903778480e+01  8.4365687841737881e+01  8.4362653427630860e+01  8.4320823902517162e+01  8.4203842778085104e+01  8.4021882159172023e+01  8.3778406969037320e+01  8.3475823706645642e+01  8.3116912535613110e+01  8.2696252620580410e+01  8.2201815753765416e+01  8.1638900825511499e+01  8.1023428617996970e+01  8.0368434877070740e+01  7.9686361068819139e+01  7.8993661654952476e+01  7.8291517752188938e+01  7.7576737373717805e+01  7.6863181047129942e+01  7.6147431376658801e+01  7.5465159993679833e+01  7.4840758077244686e+01  7.4300434513865170e+01  7.3880259091492988e+01  7.3577430495134436e+01  7.3388008731858591e+01  7.3282039648619133e+01  7.3236685121009714e+01  7.3224956201121813e+01  7.3095138411769923e+01  7.3060646986960379e+01  7.2952706812437540e+01  7.2748348948545384e+01  7.2427931329928967e+01  7.1961629419963103e+01  7.1347197440356709e+01  7.0595255902686631e+01  6.9730894918554554e+01  6.8792739861573750e+01  6.7834584973619130e+01  6.6909845131892368e+01  6.6062649752901734e+01  6.5318494526355153e+01  6.4684683720749518e+01  6.4155437197187737e+01  6.3724489654039552e+01  6.3368582141698248e+01  6.3077605021856989e+01  6.2841376817849358e+01  6.2646666309703335e+01  6.2487596756099400e+01  6.2356437316332354e+01  6.2252127958602870e+01  6.2174494238818681e+01  6.2124601451217430e+01  6.2106790701465272e+01  6.2105343049352840e+01  6.2816573079768588e+01  6.2844606686716254e+01  6.2924555147489620e+01  6.3044284611696881e+01  6.3180688702173988e+01  6.3303263103780381e+01  6.3372234333423954e+01  6.3348704977800871e+01  6.3201570259619444e+01  6.2917722219664952e+01  6.2472816649411364e+01  6.1899668038550615e+01  6.1229274606498059e+01  6.0510039676190473e+01  5.9794062697447970e+01  5.9121236607261579e+01  5.8496634067496743e+01  5.7925581398412071e+01  5.7384059649531125e+01  5.6864018325220989e+01  5.6369378803545999e+01  5.5895253135871791e+01  5.5466111754143988e+01  5.5099720351458529e+01  5.4820896784516158e+01  5.4648394640866080e+01  5.4587818084359093e+01  5.3263357635616423e+01  5.3265391795208060e+01  5.3295304503312423e+01  5.3379213146334777e+01  5.3509839863372477e+01  5.3685296617106836e+01  5.3903532956347370e+01  5.4164810928916914e+01  5.4473043492102491e+01  5.4830476410063135e+01  5.5241367163819909e+01  5.5699421257482065e+01  5.6188823079211375e+01  5.6706435513061159e+01  5.7231633072142266e+01  5.7776637260543112e+01  5.8334489693896252e+01  5.8902718516094076e+01  5.9469968361009172e+01  6.0021930128137377e+01  6.0519517519825612e+01  6.0954594456176913e+01  6.1288547320421394e+01  6.1530921116769768e+01  6.1677645994773314e+01  6.1753643017171790e+01  6.1786940531347881e+01  6.1794804502416987e+01  6.1903184895952144e+01  6.1936504508624331e+01  6.2034874730083153e+01  6.2213583732507409e+01  6.2494363044948415e+01  6.2904253352184874e+01  6.3438771831477290e+01  6.4096671986670131e+01  6.4845236577452582e+01  6.5659936248525511e+01  6.6483053709295774e+01  6.7264240699179197e+01  6.7972531712218256e+01  6.8567078573352674e+01  6.9050336701202653e+01  6.9420957915308790e+01  6.9699773451584861e+01  6.9905461511448735e+01  7.0058006748093774e+01  7.0172603418566311e+01  7.0259558699768021e+01  7.0326084633446612e+01  7.0378954421895202e+01  7.0419418024248202e+01  7.0449450702832266e+01  7.0467751187895587e+01  7.0474642246524738e+01  7.0474863126162646e+01  7.0249243128125840e+01  7.0241198151361360e+01  7.0220507721144472e+01  7.0196418324723609e+01  7.0184803447686051e+01  7.0209913060518559e+01  7.0302368904395081e+01  7.0494202952531595e+01  7.0819017836128168e+01  7.1291538499251459e+01  7.1926027941057853e+01  7.2705094375048091e+01  7.3598715413647014e+01  7.4545097364756430e+01  7.5490889539878268e+01  7.6389383843232508e+01  7.7221011252695547e+01  7.7989746034827178e+01  7.8720819974108167e+01  7.9423740508148200e+01  8.0102201253293117e+01  8.0740580638697068e+01  8.1324463375151311e+01  8.1825476756313961e+01  8.2202728457771968e+01  8.2443523270558885e+01  5.9897241528841384e+01  6.0594789187742137e+01  6.1353593236279877e+01  6.2141051178553212e+01  6.2939400749743314e+01  6.3751696714489213e+01  6.4597564360966658e+01  6.5496352605403871e+01  6.6464138086335524e+01  6.7477434381606344e+01  6.8525633651582027e+01  6.9592058650185052e+01  7.0637601334769371e+01  7.1650400267126585e+01  7.2620041755032361e+01  7.3540238701638316e+01  7.4400613463804760e+01  7.5199076171044183e+01  7.5912484494104689e+01  7.6519566765756494e+01  7.6969815347789520e+01  7.7244362521401627e+01  7.7306990263450757e+01  7.7146797772769958e+01  7.6751022367915169e+01  7.6149529527869873e+01  7.5369931812030273e+01  7.4461898927929496e+01  7.3493483257471766e+01  7.2517249954851394e+01  7.1569352986344114e+01  7.0632952784507395e+01  6.9721730273237128e+01  6.8810461069824171e+01  6.7879617408177310e+01  6.6936417527183124e+01  6.5973244372004373e+01  6.5030868155323660e+01  6.4108403060699530e+01  6.3235711319534509e+01  6.2407566987540754e+01  6.1631165670267514e+01  6.0905359498618900e+01  6.0246369144452927e+01  5.9653962413825290e+01  5.9155676604847955e+01  5.8778820651088893e+01  5.8541138879886084e+01  5.8469553010771634e+01  5.8575563536709133e+01  5.8860732357468230e+01  5.9310463561403871e+01  8.3477231808168511e+01  6.2473699351566573e+01  5.3899793432944762e+01  7.0339801208485127e+01  8.4093508740518601e+01  6.2220837149563614e+01  5.3458363482198287e+01  7.0431969841714036e+01  6.2201793332377420e+01  7.2650040051952459e+01  7.8569286575910610e+01  6.4477880226639272e+01  5.7416676667591830e+01  6.9472465572890584e+01  8.2852201687804168e+01  7.4654004414098907e+01  5.4350363869135649e+01  6.6683821316423163e+01  6.2707376971702750e+01  5.8536006979709740e+01  7.0269935004319535e+01  7.0311733841338182e+01  5.6083638471094595e+01  6.9866265149535593e+01  8.2292796566184421e+01  6.4186099444576683e+01  7.0165168431485327e+01  6.7177373093595676e+01  7.7078853722178124e+01  6.2954325122701341e+01  6.0463594326865042e+01  8.0552415130848800e+01  5.4759688292756039e+01  6.3681793620547381e+01  5.8179684999695297e+01  7.3003593645272204e+01  6.3345268657715671e+01  7.0941750456021040e+01  7.7608394173737793e+01  6.2007963299973817e+01  6.5142095178029862e+01  5.8163698383703277e+01  7.3825960577725013e+01  6.9227333924436763e+01  6.1946365001121890e+01  7.8329022738760656e+01  7.0269079645385474e+01  6.2652277200864788e+01  8.3061207949982673e+01  5.4229889919931118e+01  7.3149888968332434e+01  5.7626172222772880e+01  6.5459632091644664e+01  6.3162412510248451e+01  7.0112539606717149e+01  7.9436641663867164e+01  6.8701348601126270e+01  7.7609313832609075e+01  6.1184691033005677e+01  7.3117713821701656e+01  6.2052706273659105e+01  5.9402808153113682e+01  7.6311091964539358e+01  7.2909582710821653e+01  6.1847867875308289e+01  6.1894052552674637e+01  7.9473155046933641e+01  6.8373278430772316e+01  7.1489635107487160e+01  5.7352111164305150e+01  6.3688133444018632e+01  6.8468841275617578e+01  7.5809436517858060e+01  7.6188140269133712e+01  5.9361928651929006e+01  5.9666430671835606e+01  6.8131132571038506e+01  5.6812174627396146e+01  6.4413284171512174e+01  6.0706059609560114e+01  7.3160794147654471e+01  7.4700835729996939e+01  6.5659438563954794e+01  6.5863250425065772e+01  7.1758626995259675e+01  5.5335148655284456e+01  5.5401683315781298e+01  6.2982451088496703e+01  8.1649020766161229e+01  7.0235872124214367e+01  6.3144870814378180e+01  6.9960425598988309e+01  8.1322806074428755e+01  7.0106590781193603e+01  6.2826704121037729e+01  6.3342750032248105e+01  5.4627137698527719e+01  8.2469710622815029e+01  6.2446847746882000e+01  5.3809165421164288e+01  8.3606552698014411e+01  7.0346114060800289e+01  6.3415334373532140e+01  5.6778630092573309e+01  7.2318917670538013e+01  5.7947117870157882e+01  6.0387721714815285e+01  6.7464047049498362e+01  8.0408344229032863e+01  6.2901352641231682e+01  7.6921601655534815e+01  7.0128782111381653e+01  7.0156905629609142e+01  8.2522179549845575e+01  5.4640844897193567e+01  7.0687109372787219e+01  7.8459435950379088e+01  6.1775590255436036e+01  5.6242710500326091e+01  7.7906181677302257e+01  6.9840893686039678e+01  6.6698410946372476e+01  6.6645695533886965e+01  6.4371524160257948e+01  7.4338636402565385e+01  5.8829360747813212e+01  7.5011607812822504e+01  5.8525774262678155e+01  6.2558150729606915e+01  6.3884834910337169e+01  7.0143032222198954e+01  6.5458782567646736e+01  5.6166923749556240e+01  6.9797184412983924e+01  6.9552969586818264e+01  7.7227941130137680e+01  6.7355230852134127e+01  8.0343671200980410e+01  6.3455369842689642e+01  6.0575648192690650e+01  7.3557870483557934e+01  8.2799487872153719e+01  6.3841108524962145e+01  6.2752613629988467e+01  7.0245339401558368e+01  6.1538948385091288e+01  7.0299160655752559e+01  6.2600477517386821e+01  6.4060713818773522e+01  5.4125855755256353e+01  7.3516141392256415e+01  6.4204825544523260e+01  6.4075976911580909e+01  7.3102688158312247e+01  8.3150628905455818e+01  5.8594476401899648e+01  5.8560611851138503e+01  5.7722396844566902e+01  7.1893046202427030e+01  7.7554930847034967e+01  7.0162192372525624e+01  7.7425265843564759e+01  7.0189334378649789e+01  7.3261468307738525e+01  7.2862826155578531e+01  6.2644471762498370e+01  6.3036134567645199e+01  6.1533323126317754e+01  6.1782892454436812e+01  6.2191140037701892e+01  5.4137396157104028e+01  7.0254453744501816e+01  5.3665644482765629e+01  6.2781896680021326e+01  8.2623305697489812e+01  6.2136000681169122e+01  8.4293844811172704e+01  6.2340652488235840e+01  6.2296388688155695e+01  8.3805389128114584e+01  5.3314657866737761e+01  7.0463427307379845e+01  5.4516135066281031e+01  7.0387725113934735e+01  7.0402627601127747e+01  7.6926954176110740e+01  7.1720665363208852e+01  6.9637170104842056e+01  7.7791379815001903e+01  6.2464682106320019e+01  5.4979344215645348e+01  6.8378566331756986e+01  7.9307914417962735e+01  5.7066240030226986e+01  5.7886050010740703e+01  6.2807400973598511e+01  5.4408911526978422e+01  6.1130997085452201e+01  7.2149670666072879e+01  7.0161471823382541e+01  7.8399319903123541e+01  8.1312482474533340e+01  6.9273840197290113e+01  7.2297859303608391e+01  6.4691338245203596e+01  6.3912116776094209e+01  6.1403035294918340e+01  5.8376330609354845e+01  5.8515329442244699e+01  5.3578053837756748e+01  8.3926502848910914e+01  8.1974180381271594e+01  5.6824082830883782e+01  6.8780687692350028e+01  7.9253837810593765e+01  6.3357723680415418e+01  7.1307219260393722e+01  5.8206759548346689e+01  6.2959158181706265e+01  6.4986371069568278e+01  7.5402342922258512e+01  5.9061072243803622e+01  6.4802265454585907e+01  8.4195319472552640e+01  6.2197439472836784e+01  5.3385836073131877e+01  7.0447411548236971e+01  6.5225176720496719e+01  5.9047737135736810e+01  7.3941236080942133e+01  7.0287007077131747e+01  7.0310041047628502e+01  6.2588955520042369e+01  6.2556918150813786e+01  6.6397088769251710e+01  8.2978265788838257e+01  8.2692023673145144e+01  8.3271916802524473e+01  7.4381610741868300e+01  7.4193877370221372e+01  8.2075321273569571e+01  6.2868248492566991e+01  7.0153047405927694e+01  7.0008560179512898e+01  6.3164307469487710e+01  6.5985083726383650e+01  6.4924867849641089e+01  7.5751327690103125e+01  5.9346072757072790e+01  5.4003346424609504e+01  5.8379409566049247e+01  5.7827977212508500e+01  7.0734675167466719e+01  6.1806113829973796e+01  6.3459537838998067e+01  7.3195958961222757e+01  7.3102509566844176e+01  6.1366998823986400e+01  6.1751301817817954e+01  7.5522865594392968e+01  7.5962225945131536e+01  6.6075514729830601e+01  5.5750144746556145e+01  6.1945247225980467e+01  6.8307204391951487e+01  7.7655831505830164e+01  6.6520130968068273e+01  7.9902771274657240e+01  6.8042160692557417e+01  6.8942528995621856e+01  6.9631618094245681e+01  7.8025024801908401e+01  7.8776728071247675e+01  6.9162743269659103e+01  6.0807884406266496e+01  6.1174094880001775e+01  7.8054090138836060e+01  6.9952125607732370e+01  7.7419910491368881e+01  7.9724411806311593e+01  6.8408620045916948e+01  7.0476208901893045e+01  6.1677874694407137e+01  6.0043711399221529e+01  6.0151669034109382e+01  7.3983863905409379e+01  7.3811546757758364e+01  8.1083316208082095e+01  5.8150500698569594e+01  5.7924185779020043e+01  5.7528341311809747e+01  7.5178309911275093e+01  5.9045092677114077e+01  6.2133842753205116e+01  7.5069346386298477e+01  6.3106921552594038e+01  6.3553651334465044e+01  6.4839122953844679e+01  7.3098330771430653e+01  7.2886267899969809e+01  6.5955877750276358e+01  6.7419380034748855e+01  5.4471067786146399e+01  8.1932215918961006e+01  6.3390801693528992e+01  7.1678636062859212e+01  5.5467698756438281e+01  5.5019887264225119e+01  6.4034207886193187e+01  6.3706487465194485e+01  6.3513445064214416e+01  6.9764541620676226e+01  7.6240997995739832e+01  7.6590335520194643e+01  5.9786553738166930e+01  5.9992055888880110e+01  6.5210744330389915e+01  7.0626775285060887e+01  7.2729350416426826e+01  6.9438724266426576e+01  6.3156204243005021e+01  5.8637978857503363e+01  6.2821587011100199e+01  7.0214956807021963e+01  7.1201665881289514e+01  5.3264387205565164e+01  6.2106022797868604e+01  8.4364411759600856e+01  7.0474828547520957e+01  7.3253262896203239e+01  6.9058528480038703e+01  7.6471271697840777e+01  6.3765052658900252e+01  5.8869771062072843e+01  6.3324822367003286e+01  7.2992660471941747e+01  7.3235353222655476e+01  7.7043187731833456e+01  6.4277878393517312e+01  5.5826962295675798e+01  5.5534655070099440e+01  5.5118979809082312e+01  5.5782340888787743e+01  6.0024203241648713e+01  7.6609775549757529e+01  7.1294651589606673e+01  6.1856984454990680e+01  6.1810941873431453e+01  6.1953831238898147e+01  5.9731389934029117e+01  5.9164317852102165e+01  7.2883685047191591e+01  7.2620958283269630e+01  8.0871665469932921e+01  7.7313220699078016e+01  6.5024782278727841e+01  8.1835440985943208e+01  6.9885420733254023e+01  6.6507249410104478e+01  6.2758971118913159e+01  8.2713591148211350e+01  7.3927772468471687e+01  5.7389812684204564e+01  5.7326222668163147e+01  5.4358456388408506e+01  6.9426863999649100e+01  8.0073122528339368e+01  6.7786395340834517e+01  6.9830505604878113e+01  7.0000619294979117e+01  7.0079437935148576e+01  7.5023946221891961e+01  6.0966304573203516e+01  8.3309337382067653e+01  5.4929366432030996e+01  7.6793513273042080e+01  6.7558994585768090e+01  7.0276991817033462e+01  6.2649214780849306e+01  5.7795349261769793e+01  6.5948571178942856e+01  7.7176638280491900e+01  6.0742519578883361e+01  7.9090637367769091e+01  6.2036837284400811e+01  5.4463225994577876e+01  7.0168057530243303e+01  6.7561792030213738e+01  7.6283587958009562e+01  6.3045566208601507e+01  7.3065790523130616e+01  6.2137917120709751e+01  7.0466590523097821e+01  8.4314589600950200e+01  5.3299426015363295e+01  6.8763990452049470e+01  6.3690532026143423e+01  5.5319020277595307e+01  6.3568868843621260e+01  7.0040700462106187e+01  6.7366292932895007e+01  6.2977415933858758e+01  6.0173407729445167e+01  8.2245209358007799e+01  7.0245006835180561e+01  7.0146015869988176e+01  6.9267878179098588e+01  6.4013671072700888e+01  6.5797606889182276e+01  6.6749943931738983e+01  7.0231843398124582e+01  6.2867945874941739e+01  7.0256197117815077e+01  6.3004840304472246e+01  7.2036523172445925e+01  7.8657558987345666e+01  7.1080888557455850e+01  5.6560045676861428e+01  7.8936246501525446e+01  6.2113608395468958e+01  5.6375928826292004e+01  5.7203884842491135e+01  5.7150196847795151e+01  6.5129616498622070e+01  6.2073361617680604e+01  5.4601330009960996e+01  7.2703374911790206e+01  7.9928792719045234e+01  6.7668677965936766e+01  6.2263081890188801e+01  5.8447740133795683e+01  7.0827975190269242e+01  7.0085728273672871e+01  5.4241272898056280e+01  7.8265730340190586e+01  6.9215524911323087e+01  7.3115394539502574e+01  6.1886123034145854e+01  7.3206196810144775e+01  7.2427263135621843e+01  8.0692803795725837e+01  6.2758107702942290e+01  7.0230065379807399e+01  7.0201060616324824e+01  6.2859492293013197e+01  6.2749882249131744e+01  6.2745555491866902e+01  5.4371312212674525e+01  8.3044291612887420e+01  6.9198743609689160e+01  7.8149218095398425e+01  6.1770145682145319e+01  7.2454581427569039e+01  7.1010871982437706e+01  6.8442955466399567e+01  7.3899050295321288e+01  7.7388597153792801e+01  7.8963060975831652e+01  6.3266351004784127e+01  7.0369698474809795e+01  6.2419491825482254e+01  5.5945028970430712e+01  7.0272849404747262e+01  6.3481326168716130e+01  8.1603442939572020e+01  6.3105799297108639e+01  8.0978248279500647e+01  8.1409176385846990e+01  5.4786417182540511e+01  5.4595836745627949e+01  8.2514837159881168e+01  8.2545220995998235e+01  7.5880609045751768e+01  6.3752873982404331e+01  6.2541784348504009e+01  6.3243858086713480e+01  6.3665383475881860e+01  6.2494921700528970e+01  6.4946218429642741e+01  5.4089615661724089e+01  6.1473028840003629e+01  6.4958994008217672e+01  7.7627010483743476e+01  7.5600410642915080e+01  6.3592168144151515e+01  6.1369090990063363e+01  6.1647234847120927e+01  6.3228410038689290e+01  5.7957578282102439e+01  7.7132908661183421e+01  7.3457570861260933e+01  7.0273357195863767e+01  7.0913340313351128e+01  7.0663431525393221e+01  7.8090937605335569e+01  5.3780539806434085e+01  8.3643599609998319e+01  8.3496223381708262e+01  8.3510978029168058e+01  5.3928983982371449e+01  5.3693753242429089e+01  5.6112073073148807e+01  6.9289992202771842e+01  5.6669213687902520e+01  7.2109326268105306e+01  5.8202445742468647e+01  6.2548154859601098e+01  6.2470198616380614e+01  7.0311033347206958e+01  7.0363113489558216e+01  7.0340635403852303e+01  6.1762995969687672e+01  8.3768678854838413e+01  7.0378091775091889e+01  6.2364922920745961e+01  5.4931691909075610e+01  7.1972038799576453e+01  6.2458517909163618e+01  7.0739332621935574e+01  7.7975702873857273e+01  7.0367650498855241e+01  6.2805790073892730e+01  7.0250304231993425e+01  5.9558779032673613e+01  5.7037850705752383e+01  5.7094051855814271e+01  5.6363791677781428e+01  7.9734151900444090e+01  6.2099431133859582e+01  8.2369695862860155e+01  5.6631789628951317e+01  7.0105090909069574e+01  6.2976841934433075e+01  7.1280075132548120e+01  7.1892671163392663e+01  5.3852977095337309e+01  6.2773409735600026e+01  8.2333524697767444e+01  5.7458195434919283e+01  6.2112240929828808e+01  5.9270203624659132e+01  7.6743391008265107e+01  6.7982433962307013e+01  6.0771253035495896e+01  6.2573228058198225e+01  6.1085043965481624e+01  6.3340408055965050e+01  7.9960631163581212e+01  7.4781777548228249e+01  6.6897729641110018e+01  6.4164866049398469e+01  6.3387044951704482e+01  6.4359252834260573e+01  6.4642018240867969e+01  6.1985879196400084e+01  6.9554345311589884e+01  7.0195888916089487e+01  6.7243844260726874e+01  6.2806849202330419e+01  7.0247306073134567e+01  6.3064037408780102e+01  7.8270217487442821e+01  6.9748884283128547e+01  7.3269573689776692e+01  7.3178586126125708e+01  7.3692329443178238e+01  6.3912581875346532e+01  6.4388662095960598e+01  5.8118038275036419e+01  5.8177208762565805e+01  5.7822557863030511e+01  6.5750109222608572e+01  5.4573997348203100e+01  6.2761133769516860e+01  6.6939505144290763e+01  8.2405558174320930e+01  8.2821359490336661e+01  8.0851945251707789e+01  6.6621519097381537e+01  6.8039659231929846e+01  6.7422834285345260e+01  6.3227124109339798e+01  6.0301354860621153e+01  8.0234375091646584e+01  7.6801606429999538e+01  5.4643839236406492e+01  7.3736900644612120e+01  7.4503869741897034e+01  6.3475314591540901e+01  7.9667477102397811e+01  5.9016012353440075e+01  7.4716706619325024e+01  5.8725546263438574e+01  7.4847219337866349e+01  6.4143081206412603e+01  6.4627995440779245e+01  6.0789867019507390e+01  7.7211482472162515e+01  6.0560393363906861e+01  5.8589208443815394e+01  6.4163425753556510e+01  6.3515207168832369e+01  7.7294907594254710e+01  6.2215233446259724e+01  6.6722966363283049e+01  7.3677495737409032e+01  6.6777774569305265e+01  6.0133907666803012e+01  7.4581118640423625e+01  5.3693643717674611e+01  8.3708975250771658e+01  7.36