<?xml version="1.0"?>
<VTKFile type="UnstructuredGrid"  version="0.1"  >
<UnstructuredGrid>
<Piece  NumberOfPoints="2331" NumberOfCells="4248">
<Points>
<DataArray  type="Float64"  NumberOfComponents="3"  format="ascii">0 0.3 0  0 0 0  0.04999999999999999 0 0  0.0514582251803892 0.02410733605106462 0  0.0558116365147896 0.04786313285751154 0  0.06299675146291706 0.07092097740850717 0  0.07290879486935808 0.09294463440875382 0  0.08540322682126872 0.1136129493462312 0  0.1002978503657798 0.132624531648159 0  0.117375468351841 0.1497021496342203 0  0.1363870506537689 0.1645967731787313 0  0.1570553655912463 0.177091205130642 0  0.1790790225914929 0.187003248537083 0  0.2021368671424885 0.1941883634852104 0  0.2258926639489354 0.1985417748196108 0  0.25 0.2 0  0.2741073360510646 0.1985417748196108 0  0.2978631328575116 0.1941883634852104 0  0.3209209774085071 0.187003248537083 0  0.3429446344087537 0.177091205130642 0  0.3636129493462312 0.1645967731787313 0  0.3826245316481591 0.1497021496342202 0  0.3997021496342202 0.132624531648159 0  0.4145967731787313 0.1136129493462312 0  0.427091205130642 0.09294463440875371 0  0.4370032485370829 0.07092097740850713 0  0.4441883634852104 0.04786313285751155 0  0.4485417748196108 0.02410733605106461 0  0.45 0 0  0.55 0 0  0.5514582251803892 0.02410733605106462 0  0.5558116365147896 0.04786313285751154 0  0.5629967514629171 0.07092097740850717 0  0.5729087948693581 0.09294463440875382 0  0.5854032268212688 0.1136129493462312 0  0.6002978503657798 0.132624531648159 0  0.617375468351841 0.1497021496342203 0  0.6363870506537689 0.1645967731787313 0  0.6570553655912463 0.177091205130642 0  0.6790790225914929 0.187003248537083 0  0.7021368671424885 0.1941883634852104 0  0.7258926639489354 0.1985417748196108 0  0.75 0.2 0  0.7741073360510646 0.1985417748196108 0  0.7978631328575116 0.1941883634852104 0  0.8209209774085071 0.187003248537083 0  0.8429446344087537 0.177091205130642 0  0.8636129493462312 0.1645967731787313 0  0.8826245316481591 0.1497021496342202 0  0.8997021496342202 0.132624531648159 0  0.9145967731787312 0.1136129493462312 0  0.927091205130642 0.09294463440875371 0  0.9370032485370829 0.07092097740850713 0  0.9441883634852104 0.04786313285751155 0  0.9485417748196108 0.02410733605106461 0  0.95 0 0  1 0 0  1 0.3 0  0.9758926639489353 0.3014582251803892 0  0.9521368671424885 0.3058116365147896 0  0.9290790225914928 0.3129967514629171 0  0.9070553655912461 0.3229087948693581 0  0.8863870506537688 0.3354032268212687 0  0.867375468351841 0.3502978503657798 0  0.8502978503657798 0.367375468351841 0  0.8354032268212687 0.3863870506537689 0  0.822908794869358 0.4070553655912464 0  0.8129967514629171 0.4290790225914929 0  0.8058116365147896 0.4521368671424885 0  0.8014582251803892 0.4758926639489354 0  0.8 0.4999999999999999 0  0.8014582251803892 0.5241073360510646 0  0.8058116365147896 0.5478631328575115 0  0.8129967514629171 0.5709209774085071 0  0.8229087948693581 0.5929446344087538 0  0.8354032268212688 0.6136129493462312 0  0.8502978503657798 0.632624531648159 0  0.867375468351841 0.6497021496342202 0  0.8863870506537689 0.6645967731787313 0  0.9070553655912463 0.677091205130642 0  0.9290790225914929 0.6870032485370829 0  0.9521368671424885 0.6941883634852104 0  0.9758926639489354 0.6985417748196108 0  1 0.7 0  1 1 0  0.95 1 0  0.9485417748196108 0.9758926639489353 0  0.9441883634852104 0.9521368671424885 0  0.9370032485370829 0.9290790225914928 0  0.927091205130642 0.9070553655912463 0  0.9145967731787312 0.8863870506537688 0  0.8997021496342201 0.8673754683518409 0  0.882624531648159 0.8502978503657798 0  0.863612949346231 0.8354032268212686 0  0.8429446344087537 0.822908794869358 0  0.8209209774085071 0.8129967514629171 0  0.7978631328575114 0.8058116365147896 0  0.7741073360510646 0.8014582251803892 0  0.75 0.8 0  0.7258926639489353 0.8014582251803892 0  0.7021368671424885 0.8058116365147896 0  0.6790790225914928 0.8129967514629171 0  0.6570553655912461 0.8229087948693581 0  0.6363870506537688 0.8354032268212688 0  0.617375468351841 0.8502978503657798 0  0.6002978503657798 0.867375468351841 0  0.5854032268212687 0.8863870506537689 0  0.572908794869358 0.9070553655912463 0  0.5629967514629171 0.9290790225914929 0  0.5558116365147896 0.9521368671424885 0  0.5514582251803892 0.9758926639489355 0  0.55 0.9999999999999999 0  0.45 0.9999999999999999 0  0.4485417748196108 0.9758926639489353 0  0.4441883634852104 0.9521368671424885 0  0.4370032485370829 0.9290790225914928 0  0.427091205130642 0.9070553655912463 0  0.4145967731787313 0.8863870506537688 0  0.3997021496342201 0.8673754683518409 0  0.382624531648159 0.8502978503657798 0  0.363612949346231 0.8354032268212686 0  0.3429446344087536 0.822908794869358 0  0.3209209774085071 0.8129967514629171 0  0.2978631328575115 0.8058116365147896 0  0.2741073360510646 0.8014582251803892 0  0.25 0.8 0  0.2258926639489353 0.8014582251803892 0  0.2021368671424885 0.8058116365147896 0  0.1790790225914928 0.8129967514629171 0  0.1570553655912462 0.8229087948693581 0  0.1363870506537688 0.8354032268212688 0  0.117375468351841 0.8502978503657798 0  0.1002978503657797 0.867375468351841 0  0.08540322682126869 0.8863870506537689 0  0.07290879486935797 0.9070553655912463 0  0.06299675146291703 0.9290790225914929 0  0.05581163651478957 0.9521368671424885 0  0.0514582251803892 0.9758926639489355 0  0.04999999999999999 0.9999999999999999 0  0 1 0  -0 0.7000000000000001 0  0.0241073360510646 0.6985417748196108 0  0.04786313285751161 0.6941883634852104 0  0.07092097740850711 0.6870032485370829 0  0.09294463440875372 0.677091205130642 0  0.1136129493462312 0.6645967731787312 0  0.1326245316481591 0.6497021496342202 0  0.1497021496342202 0.632624531648159 0  0.1645967731787313 0.6136129493462312 0  0.177091205130642 0.5929446344087537 0  0.187003248537083 0.5709209774085071 0  0.1941883634852104 0.5478631328575115 0  0.1985417748196108 0.5241073360510646 0  0.2 0.5 0  0.1985417748196108 0.4758926639489353 0  0.1941883634852104 0.4521368671424885 0  0.1870032485370829 0.4290790225914928 0  0.177091205130642 0.4070553655912463 0  0.1645967731787313 0.3863870506537688 0  0.1497021496342202 0.3673754683518409 0  0.132624531648159 0.3502978503657798 0  0.113612949346231 0.3354032268212686 0  0.09294463440875361 0.322908794869358 0  0.07092097740850711 0.3129967514629171 0  0.04786313285751148 0.3058116365147896 0  0.02410733605106464 0.3014582251803892 0  0.6985417748196108 0.5241073360510646 0  0.7 0.5 0  0.6985417748196108 0.4758926639489353 0  0.6941883634852104 0.4521368671424885 0  0.6870032485370829 0.4290790225914928 0  0.677091205130642 0.4070553655912463 0  0.6645967731787312 0.3863870506537688 0  0.6497021496342201 0.3673754683518409 0  0.632624531648159 0.3502978503657798 0  0.613612949346231 0.3354032268212686 0  0.5929446344087537 0.322908794869358 0  0.5709209774085071 0.3129967514629171 0  0.5478631328575114 0.3058116365147896 0  0.5241073360510646 0.3014582251803892 0  0.4999999999999999 0.3 0  0.4758926639489353 0.3014582251803892 0  0.4521368671424885 0.3058116365147896 0  0.4290790225914928 0.3129967514629171 0  0.4070553655912462 0.3229087948693581 0  0.3863870506537688 0.3354032268212687 0  0.367375468351841 0.3502978503657798 0  0.3502978503657798 0.367375468351841 0  0.3354032268212687 0.3863870506537689 0  0.322908794869358 0.4070553655912464 0  0.3129967514629171 0.4290790225914929 0  0.3058116365147896 0.4521368671424885 0  0.3014582251803892 0.4758926639489354 0  0.3 0.4999999999999999 0  0.3014582251803892 0.5241073360510646 0  0.3058116365147896 0.5478631328575115 0  0.3129967514629171 0.5709209774085071 0  0.3229087948693581 0.5929446344087538 0  0.3354032268212687 0.6136129493462312 0  0.3502978503657798 0.632624531648159 0  0.367375468351841 0.6497021496342202 0  0.3863870506537689 0.6645967731787313 0  0.4070553655912463 0.677091205130642 0  0.4290790225914929 0.6870032485370829 0  0.4521368671424885 0.6941883634852104 0  0.4758926639489354 0.6985417748196108 0  0.4999999999999999 0.7 0  0.5241073360510646 0.6985417748196108 0  0.5478631328575116 0.6941883634852104 0  0.5709209774085071 0.6870032485370829 0  0.5929446344087537 0.677091205130642 0  0.6136129493462312 0.6645967731787312 0  0.6326245316481591 0.6497021496342202 0  0.6497021496342202 0.632624531648159 0  0.6645967731787312 0.6136129493462312 0  0.677091205130642 0.5929446344087537 0  0.6870032485370829 0.5709209774085071 0  0.6941883634852104 0.5478631328575115 0  0 0.15 0  1 0.15 0  1 0.85 0  0 0.8500000000000001 0  0 0.075 0  1 0.075 0  1 0.925 0  0 0.925 0  0.5 0.8127595604293815 0  0.5069440078039168 0.190422209288238 0  0.25 0.3127595604293815 0  0.756944007803917 0.3095777907117619 0  0.756944007803917 0.6904222092882382 0  0.25 0.6872404395706185 0  0 0.225 0  0.4255768646051012 0.2241073097134061 0  1 0.7749999999999999 0  0.6773391559270888 0.2766774022734219 0  1 0.225 0  0.6755768646051011 0.7241073097134062 0  0 0.7750000000000001 0  0.5818971135297744 0.2287925518358889 0  0.8318971135297746 0.728792551835889 0  0.1659156081861886 0.7301636995921477 0  0.08376842746533225 0.2299656297760495 0  0.4236002201977974 0.7746535834185855 0  0.0840843918138115 0.7698363004078523 0  0.3340843918138113 0.7301636995921477 0  0.3340843918138114 0.2698363004078523 0  0.9159156081861887 0.2301636995921477 0  0.5840843918138116 0.7698363004078522 0  0.1659156081861887 0.2698363004078523 0  0.9162315725346678 0.7700343702239506 0  0.8340843918138114 0.2698363004078523 0  0.75 0.6146645247768686 0  0.5 0.1125158665330878 0  0.75 0.3874841334669124 0  0.2504983345544904 0.6122915843562002 0  0.2504983345544902 0.3877084156437999 0  0.5 0.8879783056303169 0  0.7005361650220154 0.3333055947145943 0  0.70416808765371 0.6599554817221275 0  0.449930214263529 0.1678187287522426 0  0.2247310981387008 0.7415600637745463 0  0.5155081196221678 0.7563797802146907 0  0.2752689018612993 0.2584399362254537 0  0.05605196690611226 0.8246131191226815 0  0.943948033093887
[...]
<PointData  Scalars="Temperature"> 
<DataArray  type="Float64"  Name="Temperature"  format="ascii">7.2303849274254688e+01  7.2856340237380394e+01  7.2855432969443186e+01  7.2842922826732561e+01  7.2807931918303723e+01  7.2753490096015867e+01  7.2680616801857155e+01  7.2590020793244051e+01  7.2482545547985779e+01  7.2356616818524031e+01  7.2208744628631436e+01  7.2040763398821895e+01  7.1857826340844156e+01  7.1664300599568534e+01  7.1464656337826938e+01  7.1264196851154551e+01  7.1063380958215348e+01  7.0861063408796198e+01  7.0660578877508385e+01  7.0460091275453337e+01  7.0269237318684418e+01  7.0094777539482550e+01  6.9944120108801698e+01  6.9827798696200162e+01  6.9745013517529856e+01  6.9694637266940973e+01  6.9667594635148546e+01  6.9656963752391647e+01  6.9654421346671171e+01  6.9616026448971851e+01  6.9604838398212024e+01  6.9570161822584453e+01  6.9505357145860117e+01  6.9404847171162729e+01  6.9259847932192457e+01  6.9069817951400807e+01  6.8837841042108451e+01  6.8571663634111431e+01  6.8283216334908801e+01  6.7989494759277804e+01  6.7707817013366153e+01  6.7452665665391976e+01  6.7233010362985411e+01  6.7051437258324498e+01  6.6905460160635570e+01  6.6791996553356327e+01  6.6702696587663610e+01  6.6632836414269832e+01  6.6578120048656501e+01  6.6534266144283606e+01  6.6499169167331644e+01  6.6470640433788532e+01  6.6448169191398151e+01  6.6431517359983175e+01  6.6420837354461923e+01  6.6417027572369463e+01  6.6416714769088941e+01  6.6559640364225601e+01  6.6564899648823243e+01  6.6579572408576652e+01  6.6600158323528760e+01  6.6620210996024042e+01  6.6630809079851630e+01  6.6620084717894187e+01  6.6575338016384819e+01  6.6486988624701766e+01  6.6350458172852981e+01  6.6156284627259751e+01  6.5915224705273502e+01  6.5637724517938338e+01  6.5341201308703759e+01  6.5045440876137732e+01  6.4767236626910915e+01  6.4509671394435159e+01  6.4276063897347512e+01  6.4058065633502579e+01  6.3852636801875100e+01  6.3660482831206387e+01  6.3478996812523320e+01  6.3316356407141370e+01  6.3178433482872869e+01  6.3073889884944023e+01  6.3009353133119291e+01  6.2986714690545810e+01  6.2490134979990160e+01  6.2490894184518496e+01  6.2502076252720386e+01  6.2533434590181649e+01  6.2582219891299445e+01  6.2647675336282163e+01  6.2728922609359834e+01  6.2825917687371124e+01  6.2939938516377502e+01  6.3071520866818773e+01  6.3221814508067474e+01  6.3387780945506684e+01  6.3562906573952333e+01  6.3745084917427029e+01  6.3926162950105542e+01  6.4110018606914835e+01  6.4294617455096542e+01  6.4479877545220717e+01  6.4663018039993361e+01  6.4840450569050347e+01  6.4999997304785893e+01  6.5139235511837697e+01  6.5245672152086840e+01  6.5322443511352461e+01  6.5368264608371675e+01  6.5391354356275400e+01  6.5401107077025458e+01  6.5403289303514441e+01  6.5439056666411489e+01  6.5450530425125322e+01  6.5484307537538626e+01  6.5545312302417742e+01  6.5640678931233893e+01  6.5779259830269879e+01  6.5959530237673619e+01  6.6181118008577045e+01  6.6433110137632823e+01  6.6707483448220856e+01  6.6984916134963953e+01  6.7248580808129304e+01  6.7488080647918736e+01  6.7689609040429602e+01  6.7853980302956373e+01  6.7980685424326182e+01  6.8076612352118232e+01  6.8147991132061577e+01  6.8201470616364404e+01  6.8242064905735731e+01  6.8273206604126997e+01  6.8297297685190813e+01  6.8316611172009800e+01  6.8331504612478398e+01  6.8342609602304904e+01  6.8349393756165540e+01  6.8351951093345221e+01  6.8352032087088858e+01  6.8266725648416127e+01  6.8263719169030310e+01  6.8255911222588679e+01  6.8246537685822091e+01  6.8241096845869478e+01  6.8247986914357071e+01  6.8277730537485979e+01  6.8341318645824487e+01  6.8450266988440774e+01  6.8609682932169932e+01  6.8824491366465793e+01  6.9088938358740776e+01  6.9392839751398043e+01  6.9715138966210844e+01  7.0037273418226874e+01  7.0342566195190116e+01  7.0623242297500241e+01  7.0879389657245525e+01  7.1118643548083838e+01  7.1344510042855305e+01  7.1558671075436777e+01  7.1757316870725802e+01  7.1937150529717854e+01  7.2090367377501494e+01  7.2205195545963761e+01  7.2278294848018348e+01  6.5079466522170122e+01  6.5367614524750493e+01  6.5674686062490750e+01  6.5986006845610675e+01  6.6292776825367270e+01  6.6593465629661921e+01  6.6893810769159742e+01  6.7201162101476783e+01  6.7521201203530580e+01  6.7848055216539166e+01  6.8179476242661124e+01  6.8511495688848314e+01  6.8832611863325539e+01  6.9139576752681720e+01  6.9429658934859503e+01  6.9700744405605647e+01  6.9950167274806077e+01  7.0177509757414782e+01  7.0376594888644931e+01  7.0541167849020241e+01  7.0656720168728810e+01  7.0717285902360928e+01  7.0711865974539990e+01  7.0637032739927704e+01  7.0487636411097284e+01  7.0273203713955638e+01  7.0001826856085188e+01  6.9689374212649582e+01  6.9358209806992150e+01  6.9025631826942003e+01  6.8703624993475159e+01  6.8386208834066252e+01  6.8077890748348139e+01  6.7770023642006521e+01  6.7456049587482582e+01  6.7138457474338651e+01  6.6814806889007968e+01  6.6498957989202879e+01  6.6190905577238411e+01  6.5900863649190953e+01  6.5627291731469811e+01  6.5372892815460688e+01  6.5137410424552229e+01  6.4926535327958973e+01  6.4740552483810177e+01  6.4588720545483241e+01  6.4481252393171971e+01  6.4424166093613366e+01  6.4428143819470918e+01  6.4497715239435095e+01  6.4633839394736185e+01  6.4831379624862109e+01  7.2590243653826064e+01  6.6494490228555421e+01  6.2728142384005046e+01  6.8301801315313284e+01  7.2774916206788916e+01  6.6441346593521743e+01  6.2563043843759232e+01  6.8336102450881981e+01  6.5551316729673502e+01  6.9454331083156745e+01  7.1109494513437625e+01  6.6927172707005283e+01  6.4027605814801120e+01  6.7994372087795327e+01  7.2402078133650335e+01  7.0032549516984005e+01  6.2897220416983792e+01  6.7616638751213515e+01  6.6540480556163928e+01  6.4378163353453360e+01  6.8275175478775068e+01  6.8742262836297655e+01  6.3538168264523996e+01  6.8131352900194202e+01  7.2233944402104598e+01  6.6213819419901910e+01  6.8237727798585922e+01  6.7219128789830734e+01  7.0709086523006846e+01  6.6594758184065327e+01  6.4988417022614257e+01  7.1709010339317061e+01  6.3048636158800988e+01  6.6751441807856892e+01  6.4358072038738172e+01  6.9575702182964761e+01  6.6478010429382820e+01  6.8490800060216429e+01  7.0771441862951420e+01  6.5479736601449360e+01  6.7103315089689076e+01  6.4299200771168444e+01  6.9804279551764225e+01  6.7913071709714160e+01  6.5472779906381604e+01  7.1064727043365551e+01  6.8276017261826354e+01  6.6533000349992292e+01  7.2465475846213224e+01  6.2851337125703651e+01  6.9591801306215700e+01  6.4070985364583251e+01  6.7257834255512847e+01  6.5868595673350242e+01  6.8212116182650476e+01  7.1359168675090189e+01  6.7733185329562531e+01  7.0833306088719070e+01  6.5216662851374565e+01  6.9619040804126286e+01  6.5964245142195153e+01  6.4878112894377082e+01  7.0322017805001991e+01  6.9158697399043831e+01  6.5420737892304828e+01  6.5437725316920975e+01  7.1391738126030347e+01  6.7623004929190287e+01  6.9108885713949221e+01  6.4032877883900596e+01  6.6697780292349293e+01  6.8177854014171274e+01  7.0354023665778030e+01  7.0467700755056981e+01  6.4633034640489726e+01  6.4738560960430263e+01  6.8062067346254437e+01  6.3795215124077238e+01  6.6960174072560037e+01  6.5417618364095404e+01  6.9635504147897720e+01  6.9769690468911691e+01  6.6707775979455121e+01  6.6777234696201162e+01  6.9179701433610248e+01  6.3259075655428923e+01  6.3289204413124949e+01  6.5813070682633366e+01  7.2037863982037180e+01  6.8262314141365920e+01  6.6625513577669338e+01  6.8166096476470486e+01  7.1944532129760447e+01  6.8215097102063538e+01  6.6563416158207545e+01  6.6687964757087471e+01  6.3000850399221072e+01  7.2286457938059584e+01  6.6489606332295850e+01  6.2694029286330341e+01  7.2629101255495215e+01  6.8304393425630408e+01  6.6548713867618218e+01  6.3801021541124811e+01  6.9366917792396592e+01  6.4197551935609070e+01  6.4959585827251715e+01  6.7315882018710141e+01  7.1657585821540920e+01  6.6589250703904142e+01  7.0653567219711789e+01  6.8219636219115714e+01  6.8235973890431097e+01  7.2304015716733602e+01  6.3002698137787306e+01  6.8405201933061804e+01  7.1041897013587956e+01  6.5407035675616470e+01  6.3607151781295173e+01  7.0894307488978185e+01  6.8118280899093890e+01  6.7636773172358218e+01  6.7588298147349377e+01  6.6274313840976433e+01  6.9935691723797902e+01  6.4484578493971284e+01  7.0139820829965586e+01  6.4361930028858239e+01  6.5663817082835479e+01  6.6115241333306727e+01  6.8684194159659526e+01  6.7232469329958334e+01  6.3559420898101628e+01  6.8589539425294078e+01  6.8025193627096016e+01  7.0759673913711225e+01  6.7279176421686415e+01  7.1653617991593350e+01  6.6668537481202691e+01  6.5029185506971359e+01  6.9718671618719384e+01  7.2386382856412467e+01  6.6813777168403576e+01  6.6551565622642514e+01  6.8266634338296655e+01  6.5335730928471335e+01  6.8286463831779415e+01  6.6520061252463563e+01  6.6835495076693746e+01  6.2811867579627432e+01  6.9723135799804140e+01  6.6799471019335755e+01  6.6722630563707241e+01  6.9596454659126977e+01  7.2492069843899429e+01  6.4544156672451294e+01  6.4505723217685940e+01  6.4161930267361384e+01  6.8813253629056959e+01  7.0739710938652777e+01  6.8226808791981341e+01  7.0736495129069752e+01  6.8244911553880485e+01  6.9656831328489716e+01  6.9538828755959287e+01  6.6215978919462543e+01  6.6338842823380418e+01  6.5325039155230797e+01  6.5403178705090966e+01  6.5538787435421696e+01  6.2817185922636654e+01  6.8268914147245553e+01  6.2640538479943018e+01  6.6553695796065739e+01  7.2332815810327475e+01  6.6423261302215735e+01  7.2834853326077976e+01  6.6466737766421403e+01  6.6457530853496422e+01  7.2688646438888114e+01  6.2509316925598263e+01  6.8347784203444363e+01  6.2959670641755935e+01  6.8319665340070870e+01  6.8325261946389361e+01  7.0543241629488392e+01  6.8754850805991921e+01  6.8051201527370011e+01  7.0902381624043400e+01  6.5635324253598398e+01  6.3132479094799358e+01  6.7625358325714231e+01  7.1351780738702985e+01  6.3873986760356246e+01  6.4254202494767142e+01  6.5757969436573561e+01  6.2918806180333206e+01  6.5206037299814412e+01  6.9291861236718219e+01  6.8227140378020749e+01  7.1037981998409208e+01  7.1938160584829205e+01  6.8420071825146735e+01  6.9354673059114688e+01  6.7020935935145275e+01  6.6727371495769873e+01  6.5297297748264199e+01  6.4342750702007251e+01  6.4403479215315770e+01  6.2607746981295904e+01  7.2724931505850236e+01  7.2139183284412681e+01  6.3832440164779470e+01  6.7760259958664520e+01  7.1314738597428146e+01  6.6678606701370839e+01  6.9048012868337381e+01  6.4346128940662638e+01  6.6590259400699154e+01  6.7034265045489448e+01  7.0246296991381470e+01  6.4546859005652607e+01  6.6421220396568074e+01  7.2805381349459736e+01  6.6436397222229715e+01  6.2535921075414038e+01  6.8341844896939946e+01  6.6561236538545202e+01  6.4722115387155057e+01  6.9825097700763337e+01  6.8282950494131285e+01  6.8290767623864895e+01  6.6520810827227578e+01  6.6511865411401700e+01  6.6955984637286051e+01  7.2440896212663432e+01  7.2354435253163231e+01  7.2528613531340554e+01  6.9964600883615589e+01  6.9905094862319189e+01  7.2166747941847902e+01  6.5772473146568686e+01  6.8229580704216090e+01  6.8183748861206936e+01  6.6651098424012034e+01  6.7385201743105711e+01  6.7114298188514695e+01  7.0348101530727064e+01  6.4643183056745329e+01  6.2766653551434572e+01  6.4385957732367800e+01  6.4176583965190702e+01  6.8879293368357608e+01  6.5407980523208593e+01  6.6635419509688603e+01  6.9644884430209444e+01  6.9617234068341148e+01  6.5691251147301756e+01  6.5836083490218854e+01  7.0053124177265104e+01  7.0198942607304417e+01  6.7436892300753001e+01  6.3422247284718608e+01  6.5453960713065612e+01  6.8132574762349265e+01  7.0874444818859317e+01  6.6998292215213127e+01  7.1509556540633412e+01  6.7510782460216319e+01  6.7816935728444420e+01  6.8050575476161654e+01  7.0985238923099132e+01  7.1185082083734500e+01  6.7890244691620268e+01  6.5096836711000705e+01  6.5210479732736587e+01  7.0958226256408025e+01  6.8159088791735684e+01  7.0762776252954950e+01  7.1442433311972053e+01  6.7634375123367306e+01  6.8334767027631074e+01  6.5378115695123071e+01  6.5142538350029028e+01  6.5191891445499195e+01  6.9525362070538421e+01  6.9465590919508770e+01  7.1864238919003242e+01  6.4246082012664615e+01  6.4162614437775872e+01  6.4050770605122608e+01  7.0173824817998124e+01  6.4527656382127404e+01  6.5531826672019065e+01  7.0146870279582600e+01  6.5848277855029210e+01  6.6001135128560975e+01  6.7021449647538375e+01  6.9572530539998979e+01  6.9518991005933401e+01  6.7416365430308417e+01  6.7852806789772643e+01  6.2941245875597218e+01  7.2127762382086516e+01  6.6571511208398832e+01  6.9170676323317423e+01  6.3305056111605190e+01  6.3141893274129551e+01  6.6798300639220514e+01  6.6734517074056285e+01  6.6735967444539241e+01  6.8098569065724178e+01  7.0469284911252046e+01  7.0569760582081130e+01  6.4765920808574720e+01  6.4834627801184283e+01  6.6558807840884896e+01  6.8842850936630640e+01  6.9489051263612922e+01  6.8475625604719639e+01  6.6638824378145003e+01  6.4552763454890410e+01  6.6568629491792052e+01  6.8256223407869584e+01  6.9007562402865005e+01  6.2490519250708189e+01  6.6416861783486979e+01  7.2855958679661427e+01  6.8352019783065174e+01  6.9634787813900715e+01  6.8347778861714971e+01  7.0542574867818658e+01  6.6069857182149960e+01  6.4478085149026626e+01  6.6656801635180997e+01  6.9581714211007096e+01  6.9653677797655646e+01  7.0574293472609270e+01  6.6934360100780879e+01  6.3447418927090673e+01  6.3335533047172504e+01  6.3182051827210294e+01  6.3423077790810382e+01  6.4854737919490987e+01  7.0588266142231504e+01  6.8610588193300003e+01  6.5424201460385547e+01  6.5408550358708993e+01  6.5459433539066097e+01  6.4754542085561212e+01  6.4783045537736371e+01  6.9149692123234544e+01  6.9060790587088860e+01  7.1802333703009978e+01  7.0765522141421002e+01  6.6494931532683808e+01  7.2095789481834544e+01  6.8134414570877638e+01  6.6993245123832793e+01  6.6245760572749219e+01  7.2360237920055098e+01  6.9838982491885929e+01  6.4056889485903170e+01  6.4009402837433058e+01  6.2898588197176174e+01  6.7978208372947904e+01  7.1568460327261448e+01  6.7424591076140629e+01  6.8120399518702897e+01  6.8178902931166022e+01  6.8207256420571994e+01  6.9878828116573615e+01  6.5520322746005164e+01  7.2540046600607525e+01  6.3110167083831961e+01  7.0482694747780926e+01  6.7876861374821033e+01  6.8278118852650707e+01  6.6530222982409427e+01  6.4206593825067884e+01  6.7355599455561887e+01  7.0711992423288194e+01  6.5072203429194289e+01  7.1243423983309057e+01  6.5967212503541788e+01  6.2939599280103870e+01  6.8236276776610353e+01  6.7889484766414768e+01  7.0317988621648411e+01  6.6619130832729141e+01  6.9599123534866976e+01  6.6423678610340431e+01  6.8348961366782305e+01  7.2841058171634529e+01  6.2503619438528190e+01  6.7755585776542446e+01  6.6624355085819573e+01  6.3260184362250278e+01  6.6736971668191487e+01  6.8191162484101355e+01  6.7844682342562038e+01  6.6590252396280789e+01  6.4898010572957944e+01  7.2218814517132046e+01  6.8257630345352609e+01  6.8230058292914862e+01  6.7924480548277756e+01  6.6842566935212730e+01  6.6754692075504110e+01  6.7075304813087371e+01  6.8260371340254707e+01  6.6569821884045496e+01  6.8270106498588063e+01  6.6378245871477674e+01  6.9267984605540846e+01  7.1164151275208610e+01  6.8537921901352604e+01  6.3696108371103392e+01  7.1207938775466346e+01  6.5529978207847435e+01  6.3640052706838148e+01  6.3929023494015709e+01  6.3921817970292189e+01  6.7143851381023808e+01  6.5497888542018600e+01  6.2990492348502052e+01  6.9486507067372486e+01  7.1534007953280152e+01  6.7385196484168233e+01  6.5566060819874465e+01  6.4439387141910515e+01  6.8452194032767480e+01  6.8210350873936079e+01  6.2856043808562085e+01  7.1032853939161228e+01  6.7906973289016335e+01  6.9622040014994667e+01  6.5433399319274045e+01  6.9648889712325712e+01  6.9403364041546865e+01  7.1759186119469405e+01  6.6558487527825548e+01  6.8262258668316619e+01  6.8249914540964056e+01  6.6572313691765530e+01  6.6548161639184627e+01  6.6548214726018387e+01  6.2902647694954027e+01  7.2460109622325348e+01  6.8407118490057101e+01  7.0934424942585295e+01  6.5401271697939592e+01  6.9386961471079161e+01  6.8954029935127338e+01  6.8164384739431711e+01  6.9806286773019593e+01  7.0707578820799569e+01  7.1247113632299545e+01  6.6634765823932653e+01  6.8313169940896302e+01  6.6484154920655087e+01  6.3476973527891971e+01  6.8265443831966891e+01  6.5981864979421587e+01  7.2022923009708933e+01  6.6612295181970509e+01  7.1839405686989409e+01  7.1971843762389341e+01  6.3060741113830133e+01  6.2989547812526126e+01  7.2299959974831623e+01  7.2309605324610487e+01  7.0378427369404378e+01  6.6066699485475908e+01  6.6143791404758773e+01  6.6459353179035659e+01  6.6040768437573064e+01  6.5652651360483404e+01  6.7110087169036206e+01  6.2799148620244416e+01  6.5307610261712782e+01  6.6472124655027400e+01  7.0814875635235921e+01  7.0077425554520602e+01  6.6637869304066626e+01  6.5687174097411102e+01  6.5359523777776118e+01  6.5896372640890064e+01  6.4241096461224686e+01  7.0625210117078709e+01  6.9710732681742826e+01  6.8277154222398195e+01  6.8481884464695412e+01  6.8396801740859829e+01  7.0928567371054783e+01  6.2683513905622526e+01  7.2640154675607519e+01  7.2595974520920151e+01  7.2600521307267456e+01  6.2738498875329206e+01  6.2650876766480714e+01  6.3560671650987260e+01  6.7935582581921807e+01  6.3751828031480720e+01  6.8886688880734141e+01  6.4387450504032074e+01  6.6511104263710479e+01  6.6494033776857009e+01  6.8291408961455446e+01  6.8310510785333761e+01  6.8302201500986712e+01  6.5395128704054372e+01  7.2677691788474050e+01  6.8316132206236418e+01  6.6471985103103123e+01  6.3113592804383487e+01  6.9258397888002335e+01  6.5629038555993759e+01  6.8864816677975341e+01  7.0902295153950803e+01  6.8296528607948318e+01  6.6557794840315395e+01  6.8267189703401030e+01  6.4938429453094997e+01  6.3905821648963617e+01  6.3913552599537454e+01  6.3646987811731087e+01  7.1473567762830370e+01  6.5515016958910110e+01  7.2258751056576699e+01  6.3752953386171541e+01  6.8217932850353890e+01  6.6608513171303827e+01  6.8605476521157641e+01  6.9228812034117112e+01  6.2710550640878814e+01  6.5737373836257859e+01  7.2245015030319408e+01  6.4004987326543286e+01  6.6418187788751979e+01  6.4608062882832130e+01  7.0622062407699673e+01  6.7491083615229769e+01  6.5447801735099858e+01  6.5676023077158732e+01  6.5188619828257430e+01  6.6444927134038792e+01  7.1521608928361175e+01  6.9798445460007855e+01  6.7124821739613566e+01  6.6744177610345162e+01  6.6638136872408111e+01  6.6909050979094516e+01  6.6925909189645012e+01  6.5474582402974477e+01  6.8026265561923708e+01  6.8242802280280998e+01  6.7241839397279904e+01  6.6558483479758110e+01  6.8266178878500654e+01  6.6614121366883396e+01  7.1009537072985097e+01  6.8087457486949546e+01  6.9654713735463744e+01  6.9623707454375193e+01  6.9769961661161759e+01  6.6839105165847641e+01  6.6284020212429596e+01  6.4266321341321500e+01  6.4264292416697288e+01  6.4145027036738284e+01  6.7298349409895408e+01  6.2978778827445701e+01  6.6557341018933570e+01  6.7689280683791395e+01  7.2268500781503292e+01  7.2393610873034902e+01  7.1804538539616502e+01  6.7618675960237113e+01  6.7509879246050005e+01  6.7301910867783917e+01  6.6485126681923234e+01  6.4930453678265437e+01  7.1601093905316418e+01  7.0616553697683131e+01  6.3003108942351282e+01  6.9762398256505335e+01  6.9986228194967339e+01  6.6696404740229212e+01  7.1443765705686928e+01  6.4545264799266690e+01  7.0053976963656908e+01  6.4444982936028651e+01  7.0095663197345317e+01  6.6198370512693600e+01  6.6360126820959138e+01  6.5088977036592084e+01  7.0757679371759906e+01  6.5026153314888077e+01  6.4378931068548184e+01  6.6767508809496050e+01  6.6525574730754784e+01  7.0751329444147757e+01  6.5548297117284434e+01  6.7637220574695490e+01  6.9420322367513478e+01  6.7625195569765680e+01  6.5182377825094505e+01  7.0003103440206431e+01  6.2650966061057368e+01  7.2659765579213612e+01  6.97