<?xml version="1.0"?>
<VTKFile type="UnstructuredGrid"  version="0.1"  >
<UnstructuredGrid>
<Piece  NumberOfPoints="2331" NumberOfCells="4248">
<Points>
<DataArray  type="Float64"  NumberOfComponents="3"  format="ascii">0 0.3 0  0 0 0  0.04999999999999999 0 0  0.0514582251803892 0.02410733605106462 0  0.0558116365147896 0.04786313285751154 0  0.06299675146291706 0.07092097740850717 0  0.07290879486935808 0.09294463440875382 0  0.08540322682126872 0.1136129493462312 0  0.1002978503657798 0.132624531648159 0  0.117375468351841 0.1497021496342203 0  0.1363870506537689 0.1645967731787313 0  0.1570553655912463 0.177091205130642 0  0.1790790225914929 0.187003248537083 0  0.2021368671424885 0.1941883634852104 0  0.2258926639489354 0.1985417748196108 0  0.25 0.2 0  0.2741073360510646 0.1985417748196108 0  0.2978631328575116 0.1941883634852104 0  0.3209209774085071 0.187003248537083 0  0.3429446344087537 0.177091205130642 0  0.3636129493462312 0.1645967731787313 0  0.3826245316481591 0.1497021496342202 0  0.3997021496342202 0.132624531648159 0  0.4145967731787313 0.1136129493462312 0  0.427091205130642 0.09294463440875371 0  0.4370032485370829 0.07092097740850713 0  0.4441883634852104 0.04786313285751155 0  0.4485417748196108 0.02410733605106461 0  0.45 0 0  0.55 0 0  0.5514582251803892 0.02410733605106462 0  0.5558116365147896 0.04786313285751154 0  0.5629967514629171 0.07092097740850717 0  0.5729087948693581 0.09294463440875382 0  0.5854032268212688 0.1136129493462312 0  0.6002978503657798 0.132624531648159 0  0.617375468351841 0.1497021496342203 0  0.6363870506537689 0.1645967731787313 0  0.6570553655912463 0.177091205130642 0  0.6790790225914929 0.187003248537083 0  0.7021368671424885 0.1941883634852104 0  0.7258926639489354 0.1985417748196108 0  0.75 0.2 0  0.7741073360510646 0.1985417748196108 0  0.7978631328575116 0.1941883634852104 0  0.8209209774085071 0.187003248537083 0  0.8429446344087537 0.177091205130642 0  0.8636129493462312 0.1645967731787313 0  0.8826245316481591 0.1497021496342202 0  0.8997021496342202 0.132624531648159 0  0.9145967731787312 0.1136129493462312 0  0.927091205130642 0.09294463440875371 0  0.9370032485370829 0.07092097740850713 0  0.9441883634852104 0.04786313285751155 0  0.9485417748196108 0.02410733605106461 0  0.95 0 0  1 0 0  1 0.3 0  0.9758926639489353 0.3014582251803892 0  0.9521368671424885 0.3058116365147896 0  0.9290790225914928 0.3129967514629171 0  0.9070553655912461 0.3229087948693581 0  0.8863870506537688 0.3354032268212687 0  0.867375468351841 0.3502978503657798 0  0.8502978503657798 0.367375468351841 0  0.8354032268212687 0.3863870506537689 0  0.822908794869358 0.4070553655912464 0  0.8129967514629171 0.4290790225914929 0  0.8058116365147896 0.4521368671424885 0  0.8014582251803892 0.4758926639489354 0  0.8 0.4999999999999999 0  0.8014582251803892 0.5241073360510646 0  0.8058116365147896 0.5478631328575115 0  0.8129967514629171 0.5709209774085071 0  0.8229087948693581 0.5929446344087538 0  0.8354032268212688 0.6136129493462312 0  0.8502978503657798 0.632624531648159 0  0.867375468351841 0.6497021496342202 0  0.8863870506537689 0.6645967731787313 0  0.9070553655912463 0.677091205130642 0  0.9290790225914929 0.6870032485370829 0  0.9521368671424885 0.6941883634852104 0  0.9758926639489354 0.6985417748196108 0  1 0.7 0  1 1 0  0.95 1 0  0.9485417748196108 0.9758926639489353 0  0.9441883634852104 0.9521368671424885 0  0.9370032485370829 0.9290790225914928 0  0.927091205130642 0.9070553655912463 0  0.9145967731787312 0.8863870506537688 0  0.8997021496342201 0.8673754683518409 0  0.882624531648159 0.8502978503657798 0  0.863612949346231 0.8354032268212686 0  0.8429446344087537 0.822908794869358 0  0.8209209774085071 0.8129967514629171 0  0.7978631328575114 0.8058116365147896 0  0.7741073360510646 0.8014582251803892 0  0.75 0.8 0  0.7258926639489353 0.8014582251803892 0  0.7021368671424885 0.8058116365147896 0  0.6790790225914928 0.8129967514629171 0  0.6570553655912461 0.8229087948693581 0  0.6363870506537688 0.8354032268212688 0  0.617375468351841 0.8502978503657798 0  0.6002978503657798 0.867375468351841 0  0.5854032268212687 0.8863870506537689 0  0.572908794869358 0.9070553655912463 0  0.5629967514629171 0.9290790225914929 0  0.5558116365147896 0.9521368671424885 0  0.5514582251803892 0.9758926639489355 0  0.55 0.9999999999999999 0  0.45 0.9999999999999999 0  0.4485417748196108 0.9758926639489353 0  0.4441883634852104 0.9521368671424885 0  0.4370032485370829 0.9290790225914928 0  0.427091205130642 0.9070553655912463 0  0.4145967731787313 0.8863870506537688 0  0.3997021496342201 0.8673754683518409 0  0.382624531648159 0.8502978503657798 0  0.363612949346231 0.8354032268212686 0  0.3429446344087536 0.822908794869358 0  0.3209209774085071 0.8129967514629171 0  0.2978631328575115 0.8058116365147896 0  0.2741073360510646 0.8014582251803892 0  0.25 0.8 0  0.2258926639489353 0.8014582251803892 0  0.2021368671424885 0.8058116365147896 0  0.1790790225914928 0.8129967514629171 0  0.1570553655912462 0.8229087948693581 0  0.1363870506537688 0.8354032268212688 0  0.117375468351841 0.8502978503657798 0  0.1002978503657797 0.867375468351841 0  0.08540322682126869 0.8863870506537689 0  0.07290879486935797 0.9070553655912463 0  0.06299675146291703 0.9290790225914929 0  0.05581163651478957 0.9521368671424885 0  0.0514582251803892 0.9758926639489355 0  0.04999999999999999 0.9999999999999999 0  0 1 0  -0 0.7000000000000001 0  0.0241073360510646 0.6985417748196108 0  0.04786313285751161 0.6941883634852104 0  0.07092097740850711 0.6870032485370829 0  0.09294463440875372 0.677091205130642 0  0.1136129493462312 0.6645967731787312 0  0.1326245316481591 0.6497021496342202 0  0.1497021496342202 0.632624531648159 0  0.1645967731787313 0.6136129493462312 0  0.177091205130642 0.5929446344087537 0  0.187003248537083 0.5709209774085071 0  0.1941883634852104 0.5478631328575115 0  0.1985417748196108 0.5241073360510646 0  0.2 0.5 0  0.1985417748196108 0.4758926639489353 0  0.1941883634852104 0.4521368671424885 0  0.1870032485370829 0.4290790225914928 0  0.177091205130642 0.4070553655912463 0  0.1645967731787313 0.3863870506537688 0  0.1497021496342202 0.3673754683518409 0  0.132624531648159 0.3502978503657798 0  0.113612949346231 0.3354032268212686 0  0.09294463440875361 0.322908794869358 0  0.07092097740850711 0.3129967514629171 0  0.04786313285751148 0.3058116365147896 0  0.02410733605106464 0.3014582251803892 0  0.6985417748196108 0.5241073360510646 0  0.7 0.5 0  0.6985417748196108 0.4758926639489353 0  0.6941883634852104 0.4521368671424885 0  0.6870032485370829 0.4290790225914928 0  0.677091205130642 0.4070553655912463 0  0.6645967731787312 0.3863870506537688 0  0.6497021496342201 0.3673754683518409 0  0.632624531648159 0.3502978503657798 0  0.613612949346231 0.3354032268212686 0  0.5929446344087537 0.322908794869358 0  0.5709209774085071 0.3129967514629171 0  0.5478631328575114 0.3058116365147896 0  0.5241073360510646 0.3014582251803892 0  0.4999999999999999 0.3 0  0.4758926639489353 0.3014582251803892 0  0.4521368671424885 0.3058116365147896 0  0.4290790225914928 0.3129967514629171 0  0.4070553655912462 0.3229087948693581 0  0.3863870506537688 0.3354032268212687 0  0.367375468351841 0.3502978503657798 0  0.3502978503657798 0.367375468351841 0  0.3354032268212687 0.3863870506537689 0  0.322908794869358 0.4070553655912464 0  0.3129967514629171 0.4290790225914929 0  0.3058116365147896 0.4521368671424885 0  0.3014582251803892 0.4758926639489354 0  0.3 0.4999999999999999 0  0.3014582251803892 0.5241073360510646 0  0.3058116365147896 0.5478631328575115 0  0.3129967514629171 0.5709209774085071 0  0.3229087948693581 0.5929446344087538 0  0.3354032268212687 0.6136129493462312 0  0.3502978503657798 0.632624531648159 0  0.367375468351841 0.6497021496342202 0  0.3863870506537689 0.6645967731787313 0  0.4070553655912463 0.677091205130642 0  0.4290790225914929 0.6870032485370829 0  0.4521368671424885 0.6941883634852104 0  0.4758926639489354 0.6985417748196108 0  0.4999999999999999 0.7 0  0.5241073360510646 0.6985417748196108 0  0.5478631328575116 0.6941883634852104 0  0.5709209774085071 0.6870032485370829 0  0.5929446344087537 0.677091205130642 0  0.6136129493462312 0.6645967731787312 0  0.6326245316481591 0.6497021496342202 0  0.6497021496342202 0.632624531648159 0  0.6645967731787312 0.6136129493462312 0  0.677091205130642 0.5929446344087537 0  0.6870032485370829 0.5709209774085071 0  0.6941883634852104 0.5478631328575115 0  0 0.15 0  1 0.15 0  1 0.85 0  0 0.8500000000000001 0  0 0.075 0  1 0.075 0  1 0.925 0  0 0.925 0  0.5 0.8127595604293815 0  0.5069440078039168 0.190422209288238 0  0.25 0.3127595604293815 0  0.756944007803917 0.3095777907117619 0  0.756944007803917 0.6904222092882382 0  0.25 0.6872404395706185 0  0 0.225 0  0.4255768646051012 0.2241073097134061 0  1 0.7749999999999999 0  0.6773391559270888 0.2766774022734219 0  1 0.225 0  0.6755768646051011 0.7241073097134062 0  0 0.7750000000000001 0  0.5818971135297744 0.2287925518358889 0  0.8318971135297746 0.728792551835889 0  0.1659156081861886 0.7301636995921477 0  0.08376842746533225 0.2299656297760495 0  0.4236002201977974 0.7746535834185855 0  0.0840843918138115 0.7698363004078523 0  0.3340843918138113 0.7301636995921477 0  0.3340843918138114 0.2698363004078523 0  0.9159156081861887 0.2301636995921477 0  0.5840843918138116 0.7698363004078522 0  0.1659156081861887 0.2698363004078523 0  0.9162315725346678 0.7700343702239506 0  0.8340843918138114 0.2698363004078523 0  0.75 0.6146645247768686 0  0.5 0.1125158665330878 0  0.75 0.3874841334669124 0  0.2504983345544904 0.6122915843562002 0  0.2504983345544902 0.3877084156437999 0  0.5 0.8879783056303169 0  0.7005361650220154 0.3333055947145943 0  0.70416808765371 0.6599554817221275 0  0.449930214263529 0.1678187287522426 0  0.2247310981387008 0.7415600637745463 0  0.5155081196221678 0.7563797802146907 0  0.2752689018612993 0.2584399362254537 0  0.05605196690611226 0.8246131191226815 0  0.943948033093887
[...]
<PointData  Scalars="Temperature"> 
<DataArray  type="Float64"  Name="Temperature"  format="ascii">1.1851768645730527e+02  1.2613982954672517e+02  1.2612713317075422e+02  1.2595187265372830e+02  1.2546211123210342e+02  1.2470155312292647e+02  1.2368649159545777e+02  1.2242980587739709e+02  1.2094512367062453e+02  1.1921267108406379e+02  1.1718477561167197e+02  1.1488298790321231e+02  1.1237055861830989e+02  1.0969716586402730e+02  1.0690993032870213e+02  1.0407313027931443e+02  1.0119377159961283e+02  9.8265306843646371e+01  9.5351228294637764e+01  9.2442901714261325e+01  8.9682374960023083e+01  8.7158147453165213e+01  8.4966873865235371e+01  8.3237821480046279e+01  8.1959039049658173e+01  8.1115323386348493e+01  8.0607629892669920e+01  8.0360906159804657e+01  8.0290628652617954e+01  7.9831219561676235e+01  7.9739771359452533e+01  7.9442943667900138e+01  7.8854176565942055e+01  7.7896034483178866e+01  7.6461290042446606e+01  7.4538317953979401e+01  7.2167031091989358e+01  6.9430373665439291e+01  6.6457146991445711e+01  6.3417221696951238e+01  6.0470962101593123e+01  5.7746743784198159e+01  5.5310506768856605e+01  5.3178938551576344e+01  5.1340161729085800e+01  4.9786731170317388e+01  4.8459030180572114e+01  4.7342982666551300e+01  4.6419244089611638e+01  4.5648103056074547e+01  4.5013459767704312e+01  4.4488351105416442e+01  4.4070182232769483e+01  4.3759065867965582e+01  4.3559254598290636e+01  4.3487958467305255e+01  4.3482187004254939e+01  4.6449499310780404e+01  4.6573910444130171e+01  4.6932863016997715e+01  4.7487865504122560e+01  4.8162240804553079e+01  4.8859011804703627e+01  4.9453413069740627e+01  4.9836598251938547e+01  4.9913721500844389e+01  4.9651745379945297e+01  4.9000805359972077e+01  4.8053809521612365e+01  4.6895196729611847e+01  4.5642690845248836e+01  4.4410791368046901e+01  4.3268599361486125e+01  4.2218173072139031e+01  4.1257607887782157e+01  4.0333124167367025e+01  3.9425477222394932e+01  3.8545574357306457e+01  3.7687137990697892e+01  3.6902645972568166e+01  3.6228939340845102e+01  3.5715137914972352e+01  3.5396928996041439e+01  3.5285141093677581e+01  3.2935734521916316e+01  3.2939348661732957e+01  3.2992195898896099e+01  3.3140676485976272e+01  3.3372675006112630e+01  3.3686100496322801e+01  3.4079689222680898e+01  3.4556560065467153e+01  3.5126841677299204e+01  3.5799050488380814e+01  3.6586523191784352e+01  3.7485781047595083e+01  3.8474545670877994e+01  3.9557449922815259e+01  4.0701785680111264e+01  4.1939527375884744e+01  4.3252732176980665e+01  4.4630154880467536e+01  4.6032772316510432e+01  4.7412185443390143e+01  4.8662054731050141e+01  4.9754170326497707e+01  5.0586959180697292e+01  5.1184057277004428e+01  5.1536085664246968e+01  5.1709285786105838e+01  5.1780007596446112e+01  5.1795017018536292e+01  5.2078970287619761e+01  5.2172946858485773e+01  5.2449058017759434e+01  5.2945785317311639e+01  5.3719800491954217e+01  5.4841473168356650e+01  5.6298516050858360e+01  5.8087727483852532e+01  6.0119697528837840e+01  6.2327126058494294e+01  6.4548020591563699e+01  6.6638589838778273e+01  6.8503678829793344e+01  7.0029466678528166e+01  7.1217168925796358e+01  7.2065590568872437e+01  7.2645752405113925e+01  7.3019581332274299e+01  7.3252174855102993e+01  7.3395986395750000e+01  7.3482606437022454e+01  7.3533179437640982e+01  7.3564287561242367e+01  7.3582607903606018e+01  7.3593979945633208e+01  7.3600248720616818e+01  7.3602510784268787e+01  7.3602647914879583e+01  7.3703079536287618e+01  7.3712300810599132e+01  7.3746311556025788e+01  7.3825098548561385e+01  7.3987976717031728e+01  7.4292070500880172e+01  7.4818177591827364e+01  7.5650409638627082e+01  7.6885120186536497e+01  7.8563887656583560e+01  8.0733678130834619e+01  8.3344203529270075e+01  8.6313322380807307e+01  8.9450620015863564e+01  9.2595553912538136e+01  9.5608335925850255e+01  9.8441094336692814e+01  1.0112459539913885e+02  1.0375494635642229e+02  1.0635626318191183e+02  1.0893355237981686e+02  1.1140859675005416e+02  1.1370615020354909e+02  1.1569818173912500e+02  1.1720928028110605e+02  1.1817804438743347e+02  4.4663158018816922e+01  4.5883504528826592e+01  4.7288797908411553e+01  4.8842477220020591e+01  5.0535227149138009e+01  5.2410870168185127e+01  5.4536793096886989e+01  5.6957755612854086e+01  5.9719139216367751e+01  6.2733027842400098e+01  6.5958985925362512e+01  6.9336262855610130e+01  7.2740263536792966e+01  7.6134559598556365e+01  7.9480386887613022e+01  8.2763819616764010e+01  8.5935686129086719e+01  8.8975894193628676e+01  9.1774587569819801e+01  9.4237644094592213e+01  9.6154743783560946e+01  9.7445219133989227e+01  9.7963914813437654e+01  9.7667758046997875e+01  9.6520772415091784e+01  9.4634255160046578e+01  9.2120609816163636e+01  8.9165787367606299e+01  8.6014012484163572e+01  8.2856945054400938e+01  7.9831178719265537e+01  7.6902028378291149e+01  7.4120420460754190e+01  7.1408292331077106e+01  6.8708938142309037e+01  6.6033431087230625e+01  6.3344399747590828e+01  6.0747802357375114e+01  5.8233846364798552e+01  5.5878380100725600e+01  5.3662125745801660e+01  5.1600793300911420e+01  4.9684137703500255e+01  4.7946225941755351e+01  4.6372502058521448e+01  4.5021395957987714e+01  4.3942527985337946e+01  4.3170804115236422e+01  4.2751609974964033e+01  4.2704396005628070e+01  4.3029965315825201e+01  4.3698146503025825e+01  1.2243029629746654e+02  4.4971702043484235e+01  3.4063450158858487e+01  7.3576072032373133e+01  1.2500006206763373e+02  4.3945459925987898e+01  3.3280336866711984e+01  7.3589897417286693e+01  5.3037991205534247e+01  7.9157771462823703e+01  1.0269122610110162e+02  5.3273364746747291e+01  4.0755557313951378e+01  7.2911528880995803e+01  1.1984567985292740e+02  8.6665512064692123e+01  3.4863441236224027e+01  6.0040290690356279e+01  4.5959038778881599e+01  4.3571690026618278e+01  7.3629841777772157e+01  7.1461432681844983e+01  3.8139967288493843e+01  7.3334761347047305e+01  1.1756716316749251e+02  5.8384250609639011e+01  7.3543091405993763e+01  6.6560046377093798e+01  9.6362243419476755e+01  4.6960896320527638e+01  4.8533013257026305e+01  1.1055154761358666e+02  3.5629718709306438e+01  4.9974037098700343e+01  4.1854579577288874e+01  7.9914241774937139e+01  5.1023714350631494e+01  7.7658003970633217e+01  9.9528824910101704e+01  5.2435754480771209e+01  5.5700016460673865e+01  4.2277000877145220e+01  8.3264041419797010e+01  7.1845607883270290e+01  5.2414853148773318e+01  1.0144089883979173e+02  7.3538245608028120e+01  4.5693727484691230e+01  1.2071154430477569e+02  3.4658151371243498e+01  8.1213144126331187e+01  4.1482591679351785e+01  5.5976647650706461e+01  5.5577006241688807e+01  7.4503761718929326e+01  1.0626609005313566e+02  7.0950610483983866e+01  9.8788529634585743e+01  5.0367652575088563e+01  8.0024568288678267e+01  4.8500219186144570e+01  4.3787341345347045e+01  9.5258813250880749e+01  8.4076679691826698e+01  5.1933174036370261e+01  5.2078126758288811e+01  1.0615307786647857e+02  6.9733551138597079e+01  7.5123981448538004e+01  4.0377941994121571e+01  5.0661972647965037e+01  6.5521949721880318e+01  9.1275381964084247e+01  9.2666925506428257e+01  4.5730125092016038e+01  4.6448943747062252e+01  6.4630266475700026e+01  3.9656844036171528e+01  5.2428873281533200e+01  4.6033069894885500e+01  8.0061716443438982e+01  8.9956562623687233e+01  6.2364835435151868e+01  6.2994920609016845e+01  7.6307909141816111e+01  3.6737123467705260e+01  3.6810247847426467e+01  5.5152804585666885e+01  1.1497990300269649e+02  7.3662959207301967e+01  4.7862254399552427e+01  7.3228185714281878e+01  1.1361242442061466e+02  7.3699650201316103e+01  4.6476259473829259e+01  4.8455082496985760e+01  3.5365738149165033e+01  1.1828662539731182e+02  4.4855933648926289e+01  3.3905561047528998e+01  1.2297001063694586e+02  7.3559702695203029e+01  5.0622995529413018e+01  3.9428016842958741e+01  7.7681314914397220e+01  4.2042314090913145e+01  4.8335628566946895e+01  6.7471627611344445e+01  1.1007163577254870e+02  4.6681684313124492e+01  9.5850106273196943e+01  7.4188929585823089e+01  7.3422324053390355e+01  1.1849876460855845e+02  3.5430368975057448e+01  7.6588421079681666e+01  1.0269186704875955e+02  5.1873220472004590e+01  3.8355800242418205e+01  1.0027327366405471e+02  7.4259522670528725e+01  5.9882794194887431e+01  6.0141714274306246e+01  5.8849768223799479e+01  8.5625516169037212e+01  4.4189807284840292e+01  8.7916015655847630e+01  4.3668294375351898e+01  5.3915313816561145e+01  5.7607787560850838e+01  7.1054348695605597e+01  5.6286995570218849e+01  3.8388033030818562e+01  6.9693488062625406e+01  7.2458807745448667e+01  9.6874501444875150e+01  6.6935705857463574e+01  1.0963112720775192e+02  4.9434093453583742e+01  4.8819975206877864e+01  8.2490596395285380e+01  1.1963267405495014e+02  5.0309340709065225e+01  4.6131368968387520e+01  7.3587668240104250e+01  5.1316289786349401e+01  7.3592143641678632e+01  4.5499820310293934e+01  5.1532235127418303e+01  3.4479432995962263e+01  8.1855289688110886e+01  5.2971591847540786e+01  5.3043898883808744e+01  8.0521220374542807e+01  1.2107616803750234e+02  4.2424977351807350e+01  4.2561817510399457e+01  4.1172413948772785e+01  8.0686725832885642e+01  9.9531234917260932e+01  7.5393911697473527e+01  9.8555779651153614e+01  7.3714061469284815e+01  8.0678965710933298e+01  7.9271039741001047e+01  4.9443261753078481e+01  5.0626239339505560e+01  5.1212436172787960e+01  5.1814780134571720e+01  5.2898739011959201e+01  3.4485557868295281e+01  7.3677948867110942e+01  3.3647736606531666e+01  4.6291535753984526e+01  1.1890740931795467e+02  4.3604976296464933e+01  1.2583873448553796e+02  4.4428872105104873e+01  4.4248749942882363e+01  1.2379660060653843e+02  3.3026280965770944e+01  7.3599130919195076e+01  3.5157707430838165e+01  7.3579401848658435e+01  7.3578816552148140e+01  9.7170346408337295e+01  8.0257783082685563e+01  7.3120871041821005e+01  9.9341904338668925e+01  5.3699486662666786e+01  3.6015306160362634e+01  6.9608451369068362e+01  1.0539114268508442e+02  4.0293168371238714e+01  4.1235337977818986e+01  5.4717651308614570e+01  3.4974030334254358e+01  5.0269129821435818e+01  7.7781932307438169e+01  7.5038382385584640e+01  1.0227001853166571e+02  1.1360464252050788e+02  6.8185695632743418e+01  7.7783330111407324e+01  5.3590757664702814e+01  5.1838198564527417e+01  5.0993078726686079e+01  4.3026934695610464e+01  4.3220877112897192e+01  3.3493091971372870e+01  1.2430264105120278e+02  1.1626424531927138e+02  3.9391966080141081e+01  7.1015429187279153e+01  1.0540873266722154e+02  4.8660986413172289e+01  7.4668914847651124e+01  4.2091439308042403e+01  4.7040798853281409e+01  5.5485249404634040e+01  8.9545754499625687e+01  4.4884690646584822e+01  6.0084550289695926e+01  1.2542622751044350e+02  4.3851212783256116e+01  3.3152189152679554e+01  7.3593836780687340e+01  6.1159842995626526e+01  4.3257234020818267e+01  8.4038776126688688e+01  7.3517461730577438e+01  7.3572689353607586e+01  4.5424035855092406e+01  4.5312737683256259e+01  6.4338343944404386e+01  1.2037223379263705e+02  1.1919464072604011e+02  1.2157949607085925e+02  8.5357090741978553e+01  8.4797237689414999e+01  1.1669630320955530e+02  5.4814164493843407e+01  7.4000746660133032e+01  7.3213857070716742e+01  4.7702718677364686e+01  5.8055315886806646e+01  5.4055992568528964e+01  9.0861862861586758e+01  4.5566961032622999e+01  3.4251539330550472e+01  4.2647969341413614e+01  4.1594839778507222e+01  7.2646614372118165e+01  5.1837658007240400e+01  4.9860926010622961e+01  8.0217829872013169e+01  7.9887474076467413e+01  4.7175781438703602e+01  4.8020183991250356e+01  9.2637344780872340e+01  9.4152332343340518e+01  5.8032761498805442e+01  3.7436213516717139e+01  5.2203407718994953e+01  6.4941445424255463e+01  9.8679739759485017e+01  6.4845241474819275e+01  1.0799837817332028e+02  6.8991371257150078e+01  7.1009323825939731e+01  7.2873505799447031e+01  1.0012585157461010e+02  1.0335982278341795e+02  7.1861366231999355e+01  4.9413581308700152e+01  5.0315171695431140e+01  1.0062325063524105e+02  7.3794106014506269e+01  9.8204966626382827e+01  1.0745649714381312e+02  7.0199782936186438e+01  7.5692819444042456e+01  5.1651813773844175e+01  4.4894551087902848e+01  4.5036947174050141e+01  8.7605671647597589e+01  8.7025927249006941e+01  1.1273865820785160e+02  4.2699017594337995e+01  4.2248579878741580e+01  4.1139993126294179e+01  8.8854210264967875e+01  4.4966049961894505e+01  5.2888360216206614e+01  8.8354303650395366e+01  5.5403217978219452e+01  5.6656164915001625e+01  5.4609087531796810e+01  8.1136311488757215e+01  8.0139608175156070e+01  5.7454686301927907e+01  6.2229402182467986e+01  3.5097524737554274e+01  1.1608450491897419e+02  5.0171784280025122e+01  7.5623275962787744e+01  3.7017653167229525e+01  3.6149809016036187e+01  5.1803866833660209e+01  5.0342358200059998e+01  4.9033465223954195e+01  7.2822958971089207e+01  9.3059593112853165e+01  9.4419797948222055e+01  4.6818712491655120e+01  4.7328727189772245e+01  6.1227020133004892e+01  7.2384097565660483e+01  7.9110310510909656e+01  6.8622830764395331e+01  4.7785825247219641e+01  4.2569569196257149e+01  4.6391204017471530e+01  7.3521442780858166e+01  7.4532538270203730e+01  3.2937564055308414e+01  4.3484897044428742e+01  1.2613449377776959e+02  7.3602603169309205e+01  8.1235305903853899e+01  6.7602664537904133e+01  9.3866493942974259e+01  5.7193141998923650e+01  4.4469786457799458e+01  4.8696147491426011e+01  7.9592518152015955e+01  8.0445752603845179e+01  9.7677963221488284e+01  5.1821877480458035e+01  3.7611421341036881e+01  3.7089309630154425e+01  3.6300109663530066e+01  3.7598257489578913e+01  4.7367342321243449e+01  9.4336624275798215e+01  7.8631631826101724e+01  5.1963322213365025e+01  5.1836416629956190e+01  5.2261599947813103e+01  4.6647344877919281e+01  4.3356051354210500e+01  8.3955995280143398e+01  8.3172577441620817e+01  1.1186601995313315e+02  9.7413299023236192e+01  6.0660135106054113e+01  1.1571591140024235e+02  7.4023168606384772e+01  6.4682614853846005e+01  4.9866466570743128e+01  1.1927853610719454e+02  8.3491879018847968e+01  4.0370158110120606e+01  4.0444299374275765e+01  3.4900889396367091e+01  7.3126195725245537e+01  1.0858903704024652e+02  6.8184468527248256e+01  7.3072664555302367e+01  7.3438265928902482e+01  7.3461743900273490e+01  9.1034301083096850e+01  4.6542858926156505e+01  1.2173801068347339e+02  3.5961458795476887e+01  9.6929349802591389e+01  6.2939319863705911e+01  7.3602975680761020e+01  4.5700905296395177e+01  4.1168898180435214e+01  5.8181429185881534e+01  9.7019888305202244e+01  4.9227562012058556e+01  1.0504123100999554e+02  4.8351897776573601e+01  3.5065697725910887e+01  7.3827989855121942e+01  6.2779630790786676e+01  9.5093998770448124e+01  4.7284721422456492e+01  7.9981188959833318e+01  4.3612610536143208e+01  7.3599970420617268e+01  1.2592570455550495e+02  3.2999428975970417e+01  7.0696440909549139e+01  5.1587469048171087e+01  3.6638965020590845e+01  4.9388384831453642e+01  7.3728575184726310e+01  6.1951662256478130e+01  4.7159701943339371e+01  4.7777154709673454e+01  1.1737795759639026e+02  7.4766731527744611e+01  7.3616893928642057e+01  7.2735509906359695e+01  5.1128568331360157e+01  6.2777147149699474e+01  6.5434775224196713e+01  7.3708704930869786e+01  4.6671981336782672e+01  7.3631517811001842e+01  4.9908083869414845e+01  7.7125287287521985e+01  1.0273112375674104e+02  7.8269427700371281e+01  3.9225398721295477e+01  1.0428690639514595e+02  5.2874789042415529e+01  3.8757836347852475e+01  4.0521420366403575e+01  4.0299293932546917e+01  5.5101207803368091e+01  5.2562082123956060e+01  3.5327610526656031e+01  7.8864113093517304e+01  1.0791511250944335e+02  6.7727711308797637e+01  5.3134058268737135e+01  4.2539948604803499e+01  7.7406149898197057e+01  7.3376798066814658e+01  3.4672181542546092e+01  1.0132976777755903e+02  7.2365804406350705e+01  7.9902196387301530e+01  5.2033902198415781e+01  8.0223720386085816e+01  7.7932544545731020e+01  1.1102889403445165e+02  4.6097520980692060e+01  7.3483247693814221e+01  7.3634508727682999e+01  4.6592446873393868e+01  4.6147007124373161e+01  4.6120111349634563e+01  3.4933888043342158e+01  1.2063827383730917e+02  6.7759272567997954e+01  1.0165721953122039e+02  5.1810904455152183e+01  7.8730476620515958e+01  7.3788946077607946e+01  6.5526449445874377e+01  8.4049325346582776e+01  9.8637777811650380e+01  1.0403227685410559e+02  4.8564008367668691e+01  7.3562671950958546e+01  4.4742224115358709e+01  3.7968309158539697e+01  7.5194466436752393e+01  5.6532697370647426e+01  1.1480932297323109e+02  4.7755609254209446e+01  1.1223776802476348e+02  1.1394920047521448e+02  3.5654442500764951e+01  3.5302620165411653e+01  1.1846724142300286e+02  1.1859437348007779e+02  9.1485952691823911e+01  5.7175584302405973e+01  4.9642704504799923e+01  5.0551431816397702e+01  5.6993531174610133e+01  5.3863360065640187e+01  5.4252612313159155e+01  3.4402407041415216e+01  5.1082562550819375e+01  6.0454895175057153e+01  9.9128126542987246e+01  9.2922333471031152e+01  5.0738340588585366e+01  4.7240504665841300e+01  5.1472965850143332e+01  5.5832593511255723e+01  4.1705609838481031e+01  9.7710699179483541e+01  8.1498782312176260e+01  7.3573121906117777e+01  7.7269390994010109e+01  7.6652991392421001e+01  1.0126899110551344e+02  3.3851633879647636e+01  1.2312236371031524e+02  1.2251005121080730e+02  1.2257458741848569e+02  3.4124098990779643e+01  3.3700477568628976e+01  3.8089631600560537e+01  7.1808594276646687e+01  3.9293308849020967e+01  8.1458059227233633e+01  4.1735408868762114e+01  4.5267361200946596e+01  4.4955099574488045e+01  7.3552781541329452e+01  7.3575752530289634e+01  7.3569876728678949e+01  5.1742985146821290e+01  1.2364533291108826e+02  7.3574556515745130e+01  4.4526214517988500e+01  3.5938623145799546e+01  7.6630228580245173e+01  5.3628159776208172e+01  7.3048702679309116e+01  1.0070686333456187e+02  7.5825193549424796e+01  4.6400204645223106e+01  7.3696332595052624e+01  4.4087799939358590e+01  3.9854878645025288e+01  4.0077494932453227e+01  3.8631591101190118e+01  1.0715669340390866e+02  5.2739229514344373e+01  1.1787290066087647e+02  3.9089703276379289e+01  7.3329516028934478e+01  4.6958755488971782e+01  7.8671914969418822e+01  7.6523956699107927e+01  3.3981336796659072e+01  5.4514864123825824e+01  1.1773537360090116e+02  4.1191586999222494e+01  4.3509805512608231e+01  4.5463613806203163e+01  9.4923849964740739e+01  6.8614302511592285e+01  4.6109389225088400e+01  5.4044510218611798e+01  5.0138955557515423e+01  5.1412605111304813e+01  1.0829546873234094e+02  9.0213722632202021e+01  6.5669446323404131e+01  5.3396484965052082e+01  4.9336412549514655e+01  5.2679004584379918e+01  5.4437587248704254e+01  5.2404578944926541e+01  7.2379674994167274e+01  7.4316418568655976e+01  6.6886461258628600e+01  4.6400436776789768e+01  7.3689674902716064e+01  4.7459683540806516e+01  1.0163271048528559e+02  7.3851487824951448e+01  8.0845497195036202e+01  8.0646996796113257e+01  8.2637672859907170e+01  5.0491688997501846e+01  5.8987290866017091e+01  4.2331245274238874e+01  4.2672827446751796e+01  4.1855981449628885e+01  5.7505742293887877e+01  3.5296084101107766e+01  4.6127429482284747e+01  6.0928041702232420e+01  1.1802365347025363e+02  1.1972556903376145e+02  1.1169512165841661e+02  5.9570898943727912e+01  6.9063419247163480e+01  6.7298113121693532e+01  5.0113145145731998e+01  4.8114598434438257e+01  1.0942766135533141e+02  9.5403395544227493e+01  3.5444169204835397e+01  8.3372065033906040e+01  8.6174758491176107e+01  4.9237720722097521e+01  1.0700008603603206e+02  4.4653806476027391e+01  8.6818649601070575e+01  4.3987804912119330e+01  8.7208555397154655e+01  5.8246535700658086e+01  5.9534676081617235e+01  4.9357331740569599e+01  9.6779181519194950e+01  4.8776313935892873e+01  4.3857170171078167e+01  5.3086573508078587e+01  5.1611466517653334e+01  9.7435240838416703e+01  5.2982695223258354e+01  6.0052031804329275e+01  8.6595711049838101e+01  6.0611618498010309e+01  4.5026430550498496e+01  8.6588757034263267e+01  3.3698130694998241e+01  1.2339503027811638e+02  8.24