<?xml version="1.0"?>
<VTKFile type="UnstructuredGrid"  version="0.1"  >
<UnstructuredGrid>
<Piece  NumberOfPoints="2331" NumberOfCells="4248">
<Points>
<DataArray  type="Float64"  NumberOfComponents="3"  format="ascii">0 0.3 0  0 0 0  0.04999999999999999 0 0  0.0514582251803892 0.02410733605106462 0  0.0558116365147896 0.04786313285751154 0  0.06299675146291706 0.07092097740850717 0  0.07290879486935808 0.09294463440875382 0  0.08540322682126872 0.1136129493462312 0  0.1002978503657798 0.132624531648159 0  0.117375468351841 0.1497021496342203 0  0.1363870506537689 0.1645967731787313 0  0.1570553655912463 0.177091205130642 0  0.1790790225914929 0.187003248537083 0  0.2021368671424885 0.1941883634852104 0  0.2258926639489354 0.1985417748196108 0  0.25 0.2 0  0.2741073360510646 0.1985417748196108 0  0.2978631328575116 0.1941883634852104 0  0.3209209774085071 0.187003248537083 0  0.3429446344087537 0.177091205130642 0  0.3636129493462312 0.1645967731787313 0  0.3826245316481591 0.1497021496342202 0  0.3997021496342202 0.132624531648159 0  0.4145967731787313 0.1136129493462312 0  0.427091205130642 0.09294463440875371 0  0.4370032485370829 0.07092097740850713 0  0.4441883634852104 0.04786313285751155 0  0.4485417748196108 0.02410733605106461 0  0.45 0 0  0.55 0 0  0.5514582251803892 0.02410733605106462 0  0.5558116365147896 0.04786313285751154 0  0.5629967514629171 0.07092097740850717 0  0.5729087948693581 0.09294463440875382 0  0.5854032268212688 0.1136129493462312 0  0.6002978503657798 0.132624531648159 0  0.617375468351841 0.1497021496342203 0  0.6363870506537689 0.1645967731787313 0  0.6570553655912463 0.177091205130642 0  0.6790790225914929 0.187003248537083 0  0.7021368671424885 0.1941883634852104 0  0.7258926639489354 0.1985417748196108 0  0.75 0.2 0  0.7741073360510646 0.1985417748196108 0  0.7978631328575116 0.1941883634852104 0  0.8209209774085071 0.187003248537083 0  0.8429446344087537 0.177091205130642 0  0.8636129493462312 0.1645967731787313 0  0.8826245316481591 0.1497021496342202 0  0.8997021496342202 0.132624531648159 0  0.9145967731787312 0.1136129493462312 0  0.927091205130642 0.09294463440875371 0  0.9370032485370829 0.07092097740850713 0  0.9441883634852104 0.04786313285751155 0  0.9485417748196108 0.02410733605106461 0  0.95 0 0  1 0 0  1 0.3 0  0.9758926639489353 0.3014582251803892 0  0.9521368671424885 0.3058116365147896 0  0.9290790225914928 0.3129967514629171 0  0.9070553655912461 0.3229087948693581 0  0.8863870506537688 0.3354032268212687 0  0.867375468351841 0.3502978503657798 0  0.8502978503657798 0.367375468351841 0  0.8354032268212687 0.3863870506537689 0  0.822908794869358 0.4070553655912464 0  0.8129967514629171 0.4290790225914929 0  0.8058116365147896 0.4521368671424885 0  0.8014582251803892 0.4758926639489354 0  0.8 0.4999999999999999 0  0.8014582251803892 0.5241073360510646 0  0.8058116365147896 0.5478631328575115 0  0.8129967514629171 0.5709209774085071 0  0.8229087948693581 0.5929446344087538 0  0.8354032268212688 0.6136129493462312 0  0.8502978503657798 0.632624531648159 0  0.867375468351841 0.6497021496342202 0  0.8863870506537689 0.6645967731787313 0  0.9070553655912463 0.677091205130642 0  0.9290790225914929 0.6870032485370829 0  0.9521368671424885 0.6941883634852104 0  0.9758926639489354 0.6985417748196108 0  1 0.7 0  1 1 0  0.95 1 0  0.9485417748196108 0.9758926639489353 0  0.9441883634852104 0.9521368671424885 0  0.9370032485370829 0.9290790225914928 0  0.927091205130642 0.9070553655912463 0  0.9145967731787312 0.8863870506537688 0  0.8997021496342201 0.8673754683518409 0  0.882624531648159 0.8502978503657798 0  0.863612949346231 0.8354032268212686 0  0.8429446344087537 0.822908794869358 0  0.8209209774085071 0.8129967514629171 0  0.7978631328575114 0.8058116365147896 0  0.7741073360510646 0.8014582251803892 0  0.75 0.8 0  0.7258926639489353 0.8014582251803892 0  0.7021368671424885 0.8058116365147896 0  0.6790790225914928 0.8129967514629171 0  0.6570553655912461 0.8229087948693581 0  0.6363870506537688 0.8354032268212688 0  0.617375468351841 0.8502978503657798 0  0.6002978503657798 0.867375468351841 0  0.5854032268212687 0.8863870506537689 0  0.572908794869358 0.9070553655912463 0  0.5629967514629171 0.9290790225914929 0  0.5558116365147896 0.9521368671424885 0  0.5514582251803892 0.9758926639489355 0  0.55 0.9999999999999999 0  0.45 0.9999999999999999 0  0.4485417748196108 0.9758926639489353 0  0.4441883634852104 0.9521368671424885 0  0.4370032485370829 0.9290790225914928 0  0.427091205130642 0.9070553655912463 0  0.4145967731787313 0.8863870506537688 0  0.3997021496342201 0.8673754683518409 0  0.382624531648159 0.8502978503657798 0  0.363612949346231 0.8354032268212686 0  0.3429446344087536 0.822908794869358 0  0.3209209774085071 0.8129967514629171 0  0.2978631328575115 0.8058116365147896 0  0.2741073360510646 0.8014582251803892 0  0.25 0.8 0  0.2258926639489353 0.8014582251803892 0  0.2021368671424885 0.8058116365147896 0  0.1790790225914928 0.8129967514629171 0  0.1570553655912462 0.8229087948693581 0  0.1363870506537688 0.8354032268212688 0  0.117375468351841 0.8502978503657798 0  0.1002978503657797 0.867375468351841 0  0.08540322682126869 0.8863870506537689 0  0.07290879486935797 0.9070553655912463 0  0.06299675146291703 0.9290790225914929 0  0.05581163651478957 0.9521368671424885 0  0.0514582251803892 0.9758926639489355 0  0.04999999999999999 0.9999999999999999 0  0 1 0  -0 0.7000000000000001 0  0.0241073360510646 0.6985417748196108 0  0.04786313285751161 0.6941883634852104 0  0.07092097740850711 0.6870032485370829 0  0.09294463440875372 0.677091205130642 0  0.1136129493462312 0.6645967731787312 0  0.1326245316481591 0.6497021496342202 0  0.1497021496342202 0.632624531648159 0  0.1645967731787313 0.6136129493462312 0  0.177091205130642 0.5929446344087537 0  0.187003248537083 0.5709209774085071 0  0.1941883634852104 0.5478631328575115 0  0.1985417748196108 0.5241073360510646 0  0.2 0.5 0  0.1985417748196108 0.4758926639489353 0  0.1941883634852104 0.4521368671424885 0  0.1870032485370829 0.4290790225914928 0  0.177091205130642 0.4070553655912463 0  0.1645967731787313 0.3863870506537688 0  0.1497021496342202 0.3673754683518409 0  0.132624531648159 0.3502978503657798 0  0.113612949346231 0.3354032268212686 0  0.09294463440875361 0.322908794869358 0  0.07092097740850711 0.3129967514629171 0  0.04786313285751148 0.3058116365147896 0  0.02410733605106464 0.3014582251803892 0  0.6985417748196108 0.5241073360510646 0  0.7 0.5 0  0.6985417748196108 0.4758926639489353 0  0.6941883634852104 0.4521368671424885 0  0.6870032485370829 0.4290790225914928 0  0.677091205130642 0.4070553655912463 0  0.6645967731787312 0.3863870506537688 0  0.6497021496342201 0.3673754683518409 0  0.632624531648159 0.3502978503657798 0  0.613612949346231 0.3354032268212686 0  0.5929446344087537 0.322908794869358 0  0.5709209774085071 0.3129967514629171 0  0.5478631328575114 0.3058116365147896 0  0.5241073360510646 0.3014582251803892 0  0.4999999999999999 0.3 0  0.4758926639489353 0.3014582251803892 0  0.4521368671424885 0.3058116365147896 0  0.4290790225914928 0.3129967514629171 0  0.4070553655912462 0.3229087948693581 0  0.3863870506537688 0.3354032268212687 0  0.367375468351841 0.3502978503657798 0  0.3502978503657798 0.367375468351841 0  0.3354032268212687 0.3863870506537689 0  0.322908794869358 0.4070553655912464 0  0.3129967514629171 0.4290790225914929 0  0.3058116365147896 0.4521368671424885 0  0.3014582251803892 0.4758926639489354 0  0.3 0.4999999999999999 0  0.3014582251803892 0.5241073360510646 0  0.3058116365147896 0.5478631328575115 0  0.3129967514629171 0.5709209774085071 0  0.3229087948693581 0.5929446344087538 0  0.3354032268212687 0.6136129493462312 0  0.3502978503657798 0.632624531648159 0  0.367375468351841 0.6497021496342202 0  0.3863870506537689 0.6645967731787313 0  0.4070553655912463 0.677091205130642 0  0.4290790225914929 0.6870032485370829 0  0.4521368671424885 0.6941883634852104 0  0.4758926639489354 0.6985417748196108 0  0.4999999999999999 0.7 0  0.5241073360510646 0.6985417748196108 0  0.5478631328575116 0.6941883634852104 0  0.5709209774085071 0.6870032485370829 0  0.5929446344087537 0.677091205130642 0  0.6136129493462312 0.6645967731787312 0  0.6326245316481591 0.6497021496342202 0  0.6497021496342202 0.632624531648159 0  0.6645967731787312 0.6136129493462312 0  0.677091205130642 0.5929446344087537 0  0.6870032485370829 0.5709209774085071 0  0.6941883634852104 0.5478631328575115 0  0 0.15 0  1 0.15 0  1 0.85 0  0 0.8500000000000001 0  0 0.075 0  1 0.075 0  1 0.925 0  0 0.925 0  0.5 0.8127595604293815 0  0.5069440078039168 0.190422209288238 0  0.25 0.3127595604293815 0  0.756944007803917 0.3095777907117619 0  0.756944007803917 0.6904222092882382 0  0.25 0.6872404395706185 0  0 0.225 0  0.4255768646051012 0.2241073097134061 0  1 0.7749999999999999 0  0.6773391559270888 0.2766774022734219 0  1 0.225 0  0.6755768646051011 0.7241073097134062 0  0 0.7750000000000001 0  0.5818971135297744 0.2287925518358889 0  0.8318971135297746 0.728792551835889 0  0.1659156081861886 0.7301636995921477 0  0.08376842746533225 0.2299656297760495 0  0.4236002201977974 0.7746535834185855 0  0.0840843918138115 0.7698363004078523 0  0.3340843918138113 0.7301636995921477 0  0.3340843918138114 0.2698363004078523 0  0.9159156081861887 0.2301636995921477 0  0.5840843918138116 0.7698363004078522 0  0.1659156081861887 0.2698363004078523 0  0.9162315725346678 0.7700343702239506 0  0.8340843918138114 0.2698363004078523 0  0.75 0.6146645247768686 0  0.5 0.1125158665330878 0  0.75 0.3874841334669124 0  0.2504983345544904 0.6122915843562002 0  0.2504983345544902 0.3877084156437999 0  0.5 0.8879783056303169 0  0.7005361650220154 0.3333055947145943 0  0.70416808765371 0.6599554817221275 0  0.449930214263529 0.1678187287522426 0  0.2247310981387008 0.7415600637745463 0  0.5155081196221678 0.7563797802146907 0  0.2752689018612993 0.2584399362254537 0  0.05605196690611226 0.8246131191226815 0  0.943948033093887
[...]
<PointData  Scalars="Temperature"> 
<DataArray  type="Float64"  Name="Temperature"  format="ascii">4.6309197477115049e+01  5.0080522024213202e+01  5.0069497877754635e+01  4.9991159074534018e+01  4.9770484576839991e+01  4.9423121130356343e+01  4.8952102258879904e+01  4.8358384314842418e+01  4.7648723127817377e+01  4.6815094831362089e+01  4.5837180711348431e+01  4.4727072289325278e+01  4.3515828161525725e+01  4.2227836332355366e+01  4.0888377655170828e+01  3.9536463184183383e+01  3.8187589510564607e+01  3.6852107754338221e+01  3.5569672330981724e+01  3.4333509648376527e+01  3.3195693933687693e+01  3.2178379420365957e+01  3.1298961797794327e+01  3.0600583687896115e+01  3.0071008584906409e+01  2.9709886653474644e+01  2.9478001933103553e+01  2.9359120895990074e+01  2.9322697713250410e+01  2.8884300812566696e+01  2.8844382420868008e+01  2.8718403504363863e+01  2.8482975188921639e+01  2.8129905365160813e+01  2.7639226929758092e+01  2.7030405117771291e+01  2.6338566412910708e+01  2.5590902770644735e+01  2.4830756880143454e+01  2.4099230945014476e+01  2.3426854675363046e+01  2.2833670752899515e+01  2.2326341472550038e+01  2.1900447787637315e+01  2.1547765443761378e+01  2.1263681221858928e+01  2.1034143808294491e+01  2.0853723566933912e+01  2.0715739930013214e+01  2.0610984041276996e+01  2.0533431149957888e+01  2.0476275405861983e+01  2.0435585984752613e+01  2.0407634227322934e+01  2.0390670951275208e+01  2.0384796928919332e+01  2.0382422630184330e+01  2.0629891817250929e+01  2.0651361496928743e+01  2.0713301766166371e+01  2.0811092322926843e+01  2.0935201294406607e+01  2.1073789581692708e+01  2.1209294495022590e+01  2.1328294289685804e+01  2.1414089347794160e+01  2.1460581174090407e+01  2.1457744274410476e+01  2.1417116449996282e+01  2.1346710090795906e+01  2.1259879091295641e+01  2.1169135710770167e+01  2.1077094215206696e+01  2.0983930618374348e+01  2.0890388467023236e+01  2.0792575687394173e+01  2.0692120615495632e+01  2.0594521990405354e+01  2.0500495627811141e+01  2.0417090879197936e+01  2.0347378335452877e+01  2.0295439351925058e+01  2.0263542466114728e+01  2.0252308245534866e+01  2.0100994306370364e+01  2.0101481901050249e+01  2.0104645015167307e+01  2.0113629465237249e+01  2.0128138913643333e+01  2.0148766554968994e+01  2.0176847215215098e+01  2.0213960271568453e+01  2.0262166793330223e+01  2.0323793716823658e+01  2.0401528878446218e+01  2.0496779862516743e+01  2.0608491371178399e+01  2.0738117413880136e+01  2.0882016150255719e+01  2.1043300088451339e+01  2.1216922151286248e+01  2.1400496982029257e+01  2.1583432423720716e+01  2.1757699368134041e+01  2.1905556106342591e+01  2.2020585366087833e+01  2.2086221886223612e+01  2.2110342631202847e+01  2.2095310359381656e+01  2.2058308411763264e+01  2.2025109869220952e+01  2.2011454231910353e+01  2.2108092916879560e+01  2.2151305962687150e+01  2.2270379344664807e+01  2.2464849003179701e+01  2.2740911754577631e+01  2.3108240320777671e+01  2.3560959103409981e+01  2.4099628705030046e+01  2.4702872056280476e+01  2.5361956806821464e+01  2.6035332258883432e+01  2.6686895975340420e+01  2.7284062437549128e+01  2.7785453191642905e+01  2.8175714219834941e+01  2.8435099196293997e+01  2.8571112810983497e+01  2.8587238843741826e+01  2.8493421984025368e+01  2.8315404671803961e+01  2.8065935061535232e+01  2.7764499472601916e+01  2.7442316197510173e+01  2.7131315786379457e+01  2.6863945839004327e+01  2.6683482788300804e+01  2.6610974271555349e+01  2.6611040971807864e+01  2.9414548387526398e+01  2.9429467058881897e+01  2.9476447726762576e+01  2.9551667327713773e+01  2.9656632483785771e+01  2.9796840675280446e+01  2.9988562718745477e+01  3.0255298412849545e+01  3.0619561613808557e+01  3.1093319052982391e+01  3.1702567095103149e+01  3.2436527137297503e+01  3.3284599711102835e+01  3.4206277843077011e+01  3.5174868702980810e+01  3.6168100100458012e+01  3.7187835898871931e+01  3.8251828119255961e+01  3.9382268415248156e+01  4.0560128082811914e+01  4.1763107128213115e+01  4.2934958367493302e+01  4.4027174681098785e+01  4.4973284756913678e+01  4.5690225587318274e+01  4.6149123465176714e+01  2.1261513164311705e+01  2.1354646868361002e+01  2.1479495872262252e+01  2.1640901699621175e+01  2.1847716439604344e+01  2.2117022791063022e+01  2.2467780429913496e+01  2.2913219108610338e+01  2.3472240144223058e+01  2.4134036754728541e+01  2.4903721712978591e+01  2.5778954811305763e+01  2.6740034986821438e+01  2.7778970269607012e+01  2.8878149107081473e+01  3.0025774554801881e+01  3.1188316008577893e+01  3.2345808189487606e+01  3.3436138480422521e+01  3.4427967926936859e+01  3.5232575465978726e+01  3.5821375581860423e+01  3.6136098986553421e+01  3.6174713920281725e+01  3.5918290884975022e+01  3.5418648774156580e+01  3.4712442410084478e+01  3.3865086075082189e+01  3.2945783176612053e+01  3.2002158284034216e+01  3.1071401040803483e+01  3.0139716085010086e+01  2.9234887979845997e+01  2.8346701630679679e+01  2.7475308392498174e+01  2.6637452621070327e+01  2.5829442606430099e+01  2.5085068286251794e+01  2.4403208936301844e+01  2.3802400195576411e+01  2.3274843763892900e+01  2.2822518575049919e+01  2.2435651125392397e+01  2.2114396585610528e+01  2.1843282184290072e+01  2.1620558369692752e+01  2.1444271167195943e+01  2.1312044826925479e+01  2.1223112931232993e+01  2.1176633685020924e+01  2.1169734764168819e+01  2.1199413381791825e+01  4.8370115050185284e+01  2.0502085453389508e+01  2.0169060480665252e+01  2.7971545462596442e+01  4.9571021578640853e+01  2.0418792437764949e+01  2.0121211926811178e+01  2.7055005266694380e+01  2.2842276130999434e+01  2.8770159285126340e+01  3.8634973214982708e+01  2.1997072911799261e+01  2.0899962869731315e+01  2.8972839535279608e+01  4.7053811703090034e+01  3.1695302935071336e+01  2.0221593297833021e+01  2.3411728969685921e+01  2.0583887906176461e+01  2.1324044977926686e+01  2.8909916229650591e+01  2.6257949471052882e+01  2.0562244171724824e+01  2.9163813822246514e+01  4.5968969104565751e+01  2.4305713849215429e+01  2.8968427829885474e+01  2.6743530249301426e+01  3.5672452008525354e+01  2.0752827830414468e+01  2.2070384982038000e+01  4.2567648459239429e+01  2.0296859286840125e+01  2.1285802073007357e+01  2.1013983676776498e+01  2.9059144945531148e+01  2.1769610278773392e+01  3.0572839897033635e+01  3.7277965838929006e+01  2.2420431317830722e+01  2.2581758340169703e+01  2.1144276878915925e+01  3.0472959342466687e+01  2.8520983416040316e+01  2.2896106804285353e+01  3.8150144996620625e+01  2.8342907813229854e+01  2.0590648371212158e+01  4.7532328113641512e+01  2.0212717586974996e+01  2.9507524274703957e+01  2.0997744509647376e+01  2.2486994889549138e+01  2.3419771710456374e+01  2.9718463160620050e+01  4.0462887052651851e+01  2.8219276905934333e+01  3.6590428063861602e+01  2.2231487067708603e+01  2.9090745629094485e+01  2.1529377286021994e+01  2.1158504694852937e+01  3.5838828167207161e+01  3.2503589894079163e+01  2.2056040406511819e+01  2.2164375400661537e+01  4.0429961917026787e+01  2.7775271885876879e+01  2.7293186758435027e+01  2.0820769343702676e+01  2.1462680655018772e+01  2.4646969319719979e+01  3.3408393148400911e+01  3.4261856162677027e+01  2.1600550149238082e+01  2.1802106462331988e+01  2.4519965950664897e+01  2.0751695495167745e+01  2.1758627288219063e+01  2.1327157551775585e+01  2.9101619531591236e+01  3.4226527797962369e+01  2.5418295376135909e+01  2.5682235618064045e+01  2.7787544701043743e+01  2.0412090027976880e+01  2.0411625423933724e+01  2.3477209604206621e+01  4.4672394043162114e+01  2.9202268065090159e+01  2.0886723184488194e+01  2.8865681895707738e+01  4.4090879516271400e+01  2.9368318450087504e+01  2.0650796315079084e+01  2.1016560938803149e+01  2.0264574225061420e+01  4.6255186915149956e+01  2.0503873444487770e+01  2.0161573731205184e+01  4.8624316339030571e+01  2.7772431837242909e+01  2.1566529951724515e+01  2.0714550758863247e+01  2.8125517666240420e+01  2.1097579060399109e+01  2.1924598712619161e+01  2.7071176820700515e+01  4.2306850108849346e+01  2.0738255461726443e+01  3.5212919000560063e+01  2.9674827652418827e+01  2.8551719489621664e+01  4.6461574243738852e+01  2.0285721031762645e+01  3.0407529028371570e+01  3.8810025142985296e+01  2.2433258006329638e+01  2.0578641662479040e+01  3.7396184484313039e+01  2.9391005722248359e+01  2.3316230036313154e+01  2.3514348047150129e+01  2.4358374342698369e+01  3.1137502653398574e+01  2.1463356030320810e+01  3.2381764471326193e+01  2.1293965454299503e+01  2.2857589123134456e+01  2.4187715536204486e+01  2.6218019234404437e+01  2.2610894215441608e+01  2.0596515683441336e+01  2.5694265702401388e+01  2.8667872244760638e+01  3.6129730799380916e+01  2.6813172072955044e+01  4.2165160857904176e+01  2.1187580962124446e+01  2.2226327357402766e+01  3.0056435923728909e+01  4.6971235820167742e+01  2.1351415290911127e+01  2.0623921401153162e+01  2.8798908866387400e+01  2.2540740952577874e+01  2.8458017220422423e+01  2.0545413513945903e+01  2.1601339876564726e+01  2.0204567024762426e+01  2.9958409353439887e+01  2.2036350547522499e+01  2.2161502753594249e+01  2.9321924336427756e+01  4.7697514710723070e+01  2.1027742577199408e+01  2.1123100394610891e+01  2.0946665457232342e+01  3.1595549755028340e+01  3.7510273081523771e+01  2.9691500451650892e+01  3.6537084192985240e+01  2.9373525547640419e+01  2.9455061756306169e+01  2.8710722180506483e+01  2.1542274677070182e+01  2.1812750247962121e+01  2.2191448259853765e+01  2.2177440563743346e+01  2.2482540895874290e+01  2.0196227828021719e+01  2.9263297432336447e+01  2.0143339919123502e+01  2.0612950617551125e+01  4.6535640867921551e+01  2.0391922521256586e+01  4.9947072069670895e+01  2.0457742745003340e+01  2.0447419997230558e+01  4.9018729625962159e+01  2.0106278230686261e+01  2.6734900040320603e+01  2.0242655639655382e+01  2.7488616559670568e+01  2.7304326996196359e+01  3.6267613654525384e+01  3.1281689303732659e+01  2.9093179681416888e+01  3.7005598238652567e+01  2.2893960636131766e+01  2.0327961969665360e+01  2.7679849134326112e+01  4.0124975988420793e+01  2.0832512501715279e+01  2.0904583856109998e+01  2.3478790511229480e+01  2.0233294611965558e+01  2.2434408877249339e+01  2.8302064667070361e+01  2.9769872267158604e+01  3.8476111759851584e+01  4.4047661372426887e+01  2.5390874351699711e+01  2.8222732081877037e+01  2.2010547938605654e+01  2.1760484888639880e+01  2.2659527980799076e+01  2.1264555522675433e+01  2.1314683508726858e+01  2.0134702274554702e+01  4.9248304941529170e+01  4.5366602299302365e+01  2.0695195647974124e+01  2.8253512433461488e+01  4.0020797030785040e+01  2.1038767881623730e+01  2.7209422359264892e+01  2.1088978060564681e+01  2.0746346051623412e+01  2.2608344472103227e+01  3.2924943515940420e+01  2.1541659647743089e+01  2.4834520782437011e+01  4.9759766141554827e+01  2.0413322106852576e+01  2.0113930540439931e+01  2.6892393690680183e+01  2.5026839642473863e+01  2.1153273400235797e+01  3.0599580849834489e+01  2.8043916838079216e+01  2.8225530457134212e+01  2.0574389238632708e+01  2.0536048167328833e+01  2.5989871417873900e+01  4.7373822839654281e+01  4.6781206681380162e+01  4.7953815086208579e+01  3.1397130182155379e+01  3.1028666511797294e+01  4.5471397931234229e+01  2.3290586206754696e+01  2.9626148627113313e+01  2.8641667890845639e+01  2.0902604672115597e+01  2.3028347723546922e+01  2.2075633190723991e+01  3.3621683901928186e+01  2.1693634874359386e+01  2.0183822538921877e+01  2.1208857714097739e+01  2.1029033853096767e+01  2.6498485898667965e+01  2.2066931894631779e+01  2.1298930257746385e+01  2.9232954153150107e+01  2.8966281019665143e+01  2.1389325505319434e+01  2.1531708565580569e+01  3.4937836224497495e+01  3.5619182127261823e+01  2.2941317734881263e+01  2.0475406452292884e+01  2.2176695211911600e+01  2.4470285598097743e+01  3.6833184944138800e+01  2.6262296159413179e+01  4.1307488362772858e+01  2.7551492436455973e+01  2.8146296618636182e+01  2.8963091209603338e+01  3.7638939928386691e+01  3.9023661105020111e+01  2.8567005717192007e+01  2.2144701383628465e+01  2.2118874262411623e+01  3.7553449907250176e+01  2.9430684357157617e+01  3.6235094733169248e+01  4.1059011919530029e+01  2.7957402928954007e+01  3.0207859833157958e+01  2.2501512664688182e+01  2.1260413480697384e+01  2.1228909822851715e+01  3.3457088767037057e+01  3.3432781454775345e+01  4.3580161034396752e+01  2.1174136751484752e+01  2.1091689262831032e+01  2.0957197037946681e+01  3.2349917328001567e+01  2.1459585418072272e+01  2.2912171593696502e+01  3.2265052718736968e+01  2.3306964986955830e+01  2.3782972107200798e+01  2.2312188433827778e+01  2.9457369650320420e+01  2.9133374737368221e+01  2.2778489964816192e+01  2.3869236102525075e+01  2.0248753145099258e+01  4.5300275679725758e+01  2.1419759975692113e+01  2.7397399713325370e+01  2.0444963009826211e+01  2.0355365771232602e+01  2.1692642108403472e+01  2.1367908254005968e+01  2.1127258027662851e+01  2.8692961762397591e+01  3.4017092796393342e+01  3.4707833281795097e+01  2.1704931712110191e+01  2.1829966073323920e+01  2.5199191544326851e+01  2.6472509464045189e+01  2.8718404825132804e+01  2.5452694826077092e+01  2.0890176343694758e+01  2.1078061922387359e+01  2.0677985810156770e+01  2.8638771391231465e+01  2.7246132837385893e+01  2.0101229781780550e+01  2.0383545132988260e+01  5.0075889225163685e+01  2.6610238310641705e+01  2.9594418011380007e+01  2.5300089222217260e+01  3.4629492262645257e+01  2.3847968300447420e+01  2.1434338388074508e+01  2.1040016603955710e+01  2.8821119170931038e+01  2.9363412047221789e+01  3.6640266571241902e+01  2.1637806803959126e+01  2.0498556707836087e+01  2.0445319209955375e+01  2.0362469117104112e+01  2.0504334635244696e+01  2.1992952578251483e+01  3.5078666505222635e+01  3.1054533759590186e+01  2.2082704397120935e+01  2.2023089293455701e+01  2.2286578307886458e+01  2.1779890654095986e+01  2.1097281110206939e+01  3.2564823379824496e+01  3.2142667244051324e+01  4.3185103225204557e+01  3.6017659582355293e+01  2.4948116894241661e+01  4.5064158403399915e+01  2.9444033504884331e+01  2.6129851397267924e+01  2.1657376798689288e+01  4.6761071578369553e+01  3.0664647290860184e+01  2.0803838853171882e+01  2.0845927402078821e+01  2.0236568116357827e+01  2.8952198246067848e+01  4.1624271152238975e+01  2.7256585375224319e+01  2.8925078081159494e+01  2.9135116270138848e+01  2.9018358403795926e+01  3.4644929242803343e+01  2.1397941803431394e+01  4.8033598936441621e+01  2.0332913544523390e+01  3.6532212918077370e+01  2.4159235288375623e+01  2.8693253596232694e+01  2.0569510203418712e+01  2.0921844605447653e+01  2.3134837626863472e+01  3.5658628213604906e+01  2.1997636007572314e+01  3.9911776026622682e+01  2.1463418106456082e+01  2.0237146529837315e+01  2.9518094399404475e+01  2.4041152955153638e+01  3.5620997130403438e+01  2.0820264811809796e+01  2.9079457215791784e+01  2.0393833796263440e+01  2.6698295559485828e+01  4.9983020417605282e+01  2.0104884877516266e+01  2.8099455394978580e+01  2.1786801240592197e+01  2.0390745629949610e+01  2.1177818120673209e+01  2.9407716237575002e+01  2.3766707652750277e+01  2.0756053122468369e+01  2.1998994397545605e+01  4.5837691447716303e+01  2.9898443957164591e+01  2.9209292277333731e+01  2.8790711978708845e+01  2.1508050850036156e+01  2.5579619585969393e+01  2.6415045346158344e+01  2.9388531744738298e+01  2.0671946048655290e+01  2.8984242268801125e+01  2.1513938395599343e+01  2.8039193133430313e+01  3.8846005465581477e+01  3.0604785758512786e+01  2.0697546874396263e+01  3.9472349107139088e+01  2.3073624144003919e+01  2.0638457289077145e+01  2.0866074294127358e+01  2.0837216452539128e+01  2.2334026202095909e+01  2.2328714720258358e+01  2.0265176289670045e+01  2.8572313094934003e+01  4.1355920870356535e+01  2.7045312422173900e+01  2.2664448410565882e+01  2.1163043929485490e+01  3.0394349233864858e+01  2.8769282809478806e+01  2.0210030005769717e+01  3.7971270722786834e+01  2.8728091023955926e+01  2.8952943071202306e+01  2.2091453323887862e+01  2.9254218165642637e+01  2.8169986031430923e+01  4.2861658219897905e+01  2.0664206351219843e+01  2.8329385060656321e+01  2.9161188342284664e+01  2.0682748303344880e+01  2.0600353649644596e+01  2.0606143031328706e+01  2.0243682130451969e+01  4.7479389477893974e+01  2.5165313147755231e+01  3.8433928146772494e+01  2.2266898421269115e+01  2.8621303964105778e+01  2.6973813104444165e+01  2.4695114086587637e+01  3.0505588994935255e+01  3.6750111152107031e+01  3.9417268337874319e+01  2.1012953963287661e+01  2.7536444922126421e+01  2.0499921984970285e+01  2.0549757738463306e+01  2.9925230777234869e+01  2.3946863918342313e+01  4.4562271230115641e+01  2.0861279837516147e+01  4.3404604101960317e+01  4.4271307454039047e+01  2.0290501585102131e+01  2.0255664497633820e+01  4.6308881868699466e+01  4.6443451736120849e+01  3.3647434263891476e+01  2.3880629899233146e+01  2.1720302880508328e+01  2.1634159690779725e+01  2.3968966229207776e+01  2.3201001808350153e+01  2.2126289677017461e+01  2.0191933180220452e+01  2.2254638820362313e+01  2.4846215604718914e+01  3.6759941554759791e+01  3.5133960401102975e+01  2.1524050969985375e+01  2.1429624205907398e+01  2.2132770238401971e+01  2.3710937867142892e+01  2.1038145758370511e+01  3.6288444512407629e+01  2.9845365873782075e+01  2.8529876793841485e+01  3.0694461752993888e+01  3.0328628496487276e+01  3.8084771450950328e+01  2.0155830154400785e+01  4.8701851723628657e+01  4.8408060551027290e+01  4.8431092866765070e+01  2.0178975892687298e+01  2.0149040490420347e+01  2.0545439682131452e+01  2.8395289131692049e+01  2.0702660623048960e+01  3.1731921752121593e+01  2.0943702387814945e+01  2.0545157889486415e+01  2.0505072556399160e+01  2.8070940358358932e+01  2.7728297792004362e+01  2.7912919709293568e+01  2.2097414143732571e+01  4.8937931095265412e+01  2.7552007177492154e+01  2.0468872986943325e+01  2.0323587596526711e+01  2.7775321028745914e+01  2.2725607178834128e+01  2.6817080202465799e+01  3.7708213598806637e+01  2.9968146473297111e+01  2.0624072057410562e+01  2.9373101898281096e+01  2.1214373120150334e+01  2.0762245378204977e+01  2.0802742980039582e+01  2.0616158341470147e+01  4.0957794231695374e+01  2.2680428714634527e+01  4.6166749957341352e+01  2.0666280536608415e+01  2.8497295127430700e+01  2.0790690719461132e+01  3.0976982465615340e+01  2.7797021510489554e+01  2.0164711679574417e+01  2.3082541392274347e+01  4.5957474158690907e+01  2.0947881412005668e+01  2.0384453265995397e+01  2.1600027396249253e+01  3.5203519045907726e+01  2.7364659691192575e+01  2.1302877666285347e+01  2.3151929977406077e+01  2.2335182031486895e+01  2.1957402304910634e+01  4.1450254002020621e+01  3.4219309583963508e+01  2.6389506177562463e+01  2.2262362528855387e+01  2.1175126307849922e+01  2.1846742154798612e+01  2.2378981246998972e+01  2.2492467373986639e+01  2.8555407889629201e+01  2.9783958337929537e+01  2.6896631243452941e+01  2.0629679047814523e+01  2.9329158020665460e+01  2.0824135632898855e+01  3.8096475843653550e+01  2.9297937153844700e+01  2.9507494635853945e+01  2.9392366668617001e+01  3.0260549311250156e+01  2.1389202001473819e+01  2.4587314620654087e+01  2.1151556301344069e+01  2.1187287839970619e+01  2.1059640297859900e+01  2.2960390723768910e+01  2.0269889187148028e+01  2.0653858439628021e+01  2.3646167668544372e+01  4.6215345960537803e+01  4.7054573966268777e+01  4.3166953255776242e+01  2.3231598590007415e+01  2.7582608732730108e+01  2.7001158743547517e+01  2.1473860728359593e+01  2.1854067079336975e+01  4.1996007767140533e+01  3.4936152652167095e+01  2.0289817478297952e+01  3.0297429512866799e+01  3.1416645101619121e+01  2.1144100409976254e+01  4.0825209648548643e+01  2.1553622179706284e+01  3.1853577793487332e+01  2.1409486003202815e+01  3.2164602160470153e+01  2.4219828746474604e+01  2.4537357420456626e+01  2.2069589946702099e+01  3.6169292248569143e+01  2.2255257366696526e+01  2.1303401847324135e+01  2.2114736212298304e+01  2.1915044453192980e+01  3.5927908857081860e+01  2.2557680817885643e+01  2.3380087667427137e+01  3.3229799388533500e+01  2.3649410632878883e+01  2.1248523421340487e+01  3.1458833406924189e+01  2.0147053124768387e+01  4.8829374818045508e+01  3.02