<?xml version="1.0"?>
<VTKFile type="UnstructuredGrid"  version="0.1"  >
<UnstructuredGrid>
<Piece  NumberOfPoints="2331" NumberOfCells="4248">
<Points>
<DataArray  type="Float64"  NumberOfComponents="3"  format="ascii">0 0.3 0  0 0 0  0.04999999999999999 0 0  0.0514582251803892 0.02410733605106462 0  0.0558116365147896 0.04786313285751154 0  0.06299675146291706 0.07092097740850717 0  0.07290879486935808 0.09294463440875382 0  0.08540322682126872 0.1136129493462312 0  0.1002978503657798 0.132624531648159 0  0.117375468351841 0.1497021496342203 0  0.1363870506537689 0.1645967731787313 0  0.1570553655912463 0.177091205130642 0  0.1790790225914929 0.187003248537083 0  0.2021368671424885 0.1941883634852104 0  0.2258926639489354 0.1985417748196108 0  0.25 0.2 0  0.2741073360510646 0.1985417748196108 0  0.2978631328575116 0.1941883634852104 0  0.3209209774085071 0.187003248537083 0  0.3429446344087537 0.177091205130642 0  0.3636129493462312 0.1645967731787313 0  0.3826245316481591 0.1497021496342202 0  0.3997021496342202 0.132624531648159 0  0.4145967731787313 0.1136129493462312 0  0.427091205130642 0.09294463440875371 0  0.4370032485370829 0.07092097740850713 0  0.4441883634852104 0.04786313285751155 0  0.4485417748196108 0.02410733605106461 0  0.45 0 0  0.55 0 0  0.5514582251803892 0.02410733605106462 0  0.5558116365147896 0.04786313285751154 0  0.5629967514629171 0.07092097740850717 0  0.5729087948693581 0.09294463440875382 0  0.5854032268212688 0.1136129493462312 0  0.6002978503657798 0.132624531648159 0  0.617375468351841 0.1497021496342203 0  0.6363870506537689 0.1645967731787313 0  0.6570553655912463 0.177091205130642 0  0.6790790225914929 0.187003248537083 0  0.7021368671424885 0.1941883634852104 0  0.7258926639489354 0.1985417748196108 0  0.75 0.2 0  0.7741073360510646 0.1985417748196108 0  0.7978631328575116 0.1941883634852104 0  0.8209209774085071 0.187003248537083 0  0.8429446344087537 0.177091205130642 0  0.8636129493462312 0.1645967731787313 0  0.8826245316481591 0.1497021496342202 0  0.8997021496342202 0.132624531648159 0  0.9145967731787312 0.1136129493462312 0  0.927091205130642 0.09294463440875371 0  0.9370032485370829 0.07092097740850713 0  0.9441883634852104 0.04786313285751155 0  0.9485417748196108 0.02410733605106461 0  0.95 0 0  1 0 0  1 0.3 0  0.9758926639489353 0.3014582251803892 0  0.9521368671424885 0.3058116365147896 0  0.9290790225914928 0.3129967514629171 0  0.9070553655912461 0.3229087948693581 0  0.8863870506537688 0.3354032268212687 0  0.867375468351841 0.3502978503657798 0  0.8502978503657798 0.367375468351841 0  0.8354032268212687 0.3863870506537689 0  0.822908794869358 0.4070553655912464 0  0.8129967514629171 0.4290790225914929 0  0.8058116365147896 0.4521368671424885 0  0.8014582251803892 0.4758926639489354 0  0.8 0.4999999999999999 0  0.8014582251803892 0.5241073360510646 0  0.8058116365147896 0.5478631328575115 0  0.8129967514629171 0.5709209774085071 0  0.8229087948693581 0.5929446344087538 0  0.8354032268212688 0.6136129493462312 0  0.8502978503657798 0.632624531648159 0  0.867375468351841 0.6497021496342202 0  0.8863870506537689 0.6645967731787313 0  0.9070553655912463 0.677091205130642 0  0.9290790225914929 0.6870032485370829 0  0.9521368671424885 0.6941883634852104 0  0.9758926639489354 0.6985417748196108 0  1 0.7 0  1 1 0  0.95 1 0  0.9485417748196108 0.9758926639489353 0  0.9441883634852104 0.9521368671424885 0  0.9370032485370829 0.9290790225914928 0  0.927091205130642 0.9070553655912463 0  0.9145967731787312 0.8863870506537688 0  0.8997021496342201 0.8673754683518409 0  0.882624531648159 0.8502978503657798 0  0.863612949346231 0.8354032268212686 0  0.8429446344087537 0.822908794869358 0  0.8209209774085071 0.8129967514629171 0  0.7978631328575114 0.8058116365147896 0  0.7741073360510646 0.8014582251803892 0  0.75 0.8 0  0.7258926639489353 0.8014582251803892 0  0.7021368671424885 0.8058116365147896 0  0.6790790225914928 0.8129967514629171 0  0.6570553655912461 0.8229087948693581 0  0.6363870506537688 0.8354032268212688 0  0.617375468351841 0.8502978503657798 0  0.6002978503657798 0.867375468351841 0  0.5854032268212687 0.8863870506537689 0  0.572908794869358 0.9070553655912463 0  0.5629967514629171 0.9290790225914929 0  0.5558116365147896 0.9521368671424885 0  0.5514582251803892 0.9758926639489355 0  0.55 0.9999999999999999 0  0.45 0.9999999999999999 0  0.4485417748196108 0.9758926639489353 0  0.4441883634852104 0.9521368671424885 0  0.4370032485370829 0.9290790225914928 0  0.427091205130642 0.9070553655912463 0  0.4145967731787313 0.8863870506537688 0  0.3997021496342201 0.8673754683518409 0  0.382624531648159 0.8502978503657798 0  0.363612949346231 0.8354032268212686 0  0.3429446344087536 0.822908794869358 0  0.3209209774085071 0.8129967514629171 0  0.2978631328575115 0.8058116365147896 0  0.2741073360510646 0.8014582251803892 0  0.25 0.8 0  0.2258926639489353 0.8014582251803892 0  0.2021368671424885 0.8058116365147896 0  0.1790790225914928 0.8129967514629171 0  0.1570553655912462 0.8229087948693581 0  0.1363870506537688 0.8354032268212688 0  0.117375468351841 0.8502978503657798 0  0.1002978503657797 0.867375468351841 0  0.08540322682126869 0.8863870506537689 0  0.07290879486935797 0.9070553655912463 0  0.06299675146291703 0.9290790225914929 0  0.05581163651478957 0.9521368671424885 0  0.0514582251803892 0.9758926639489355 0  0.04999999999999999 0.9999999999999999 0  0 1 0  -0 0.7000000000000001 0  0.0241073360510646 0.6985417748196108 0  0.04786313285751161 0.6941883634852104 0  0.07092097740850711 0.6870032485370829 0  0.09294463440875372 0.677091205130642 0  0.1136129493462312 0.6645967731787312 0  0.1326245316481591 0.6497021496342202 0  0.1497021496342202 0.632624531648159 0  0.1645967731787313 0.6136129493462312 0  0.177091205130642 0.5929446344087537 0  0.187003248537083 0.5709209774085071 0  0.1941883634852104 0.5478631328575115 0  0.1985417748196108 0.5241073360510646 0  0.2 0.5 0  0.1985417748196108 0.4758926639489353 0  0.1941883634852104 0.4521368671424885 0  0.1870032485370829 0.4290790225914928 0  0.177091205130642 0.4070553655912463 0  0.1645967731787313 0.3863870506537688 0  0.1497021496342202 0.3673754683518409 0  0.132624531648159 0.3502978503657798 0  0.113612949346231 0.3354032268212686 0  0.09294463440875361 0.322908794869358 0  0.07092097740850711 0.3129967514629171 0  0.04786313285751148 0.3058116365147896 0  0.02410733605106464 0.3014582251803892 0  0.6985417748196108 0.5241073360510646 0  0.7 0.5 0  0.6985417748196108 0.4758926639489353 0  0.6941883634852104 0.4521368671424885 0  0.6870032485370829 0.4290790225914928 0  0.677091205130642 0.4070553655912463 0  0.6645967731787312 0.3863870506537688 0  0.6497021496342201 0.3673754683518409 0  0.632624531648159 0.3502978503657798 0  0.613612949346231 0.3354032268212686 0  0.5929446344087537 0.322908794869358 0  0.5709209774085071 0.3129967514629171 0  0.5478631328575114 0.3058116365147896 0  0.5241073360510646 0.3014582251803892 0  0.4999999999999999 0.3 0  0.4758926639489353 0.3014582251803892 0  0.4521368671424885 0.3058116365147896 0  0.4290790225914928 0.3129967514629171 0  0.4070553655912462 0.3229087948693581 0  0.3863870506537688 0.3354032268212687 0  0.367375468351841 0.3502978503657798 0  0.3502978503657798 0.367375468351841 0  0.3354032268212687 0.3863870506537689 0  0.322908794869358 0.4070553655912464 0  0.3129967514629171 0.4290790225914929 0  0.3058116365147896 0.4521368671424885 0  0.3014582251803892 0.4758926639489354 0  0.3 0.4999999999999999 0  0.3014582251803892 0.5241073360510646 0  0.3058116365147896 0.5478631328575115 0  0.3129967514629171 0.5709209774085071 0  0.3229087948693581 0.5929446344087538 0  0.3354032268212687 0.6136129493462312 0  0.3502978503657798 0.632624531648159 0  0.367375468351841 0.6497021496342202 0  0.3863870506537689 0.6645967731787313 0  0.4070553655912463 0.677091205130642 0  0.4290790225914929 0.6870032485370829 0  0.4521368671424885 0.6941883634852104 0  0.4758926639489354 0.6985417748196108 0  0.4999999999999999 0.7 0  0.5241073360510646 0.6985417748196108 0  0.5478631328575116 0.6941883634852104 0  0.5709209774085071 0.6870032485370829 0  0.5929446344087537 0.677091205130642 0  0.6136129493462312 0.6645967731787312 0  0.6326245316481591 0.6497021496342202 0  0.6497021496342202 0.632624531648159 0  0.6645967731787312 0.6136129493462312 0  0.677091205130642 0.5929446344087537 0  0.6870032485370829 0.5709209774085071 0  0.6941883634852104 0.5478631328575115 0  0 0.15 0  1 0.15 0  1 0.85 0  0 0.8500000000000001 0  0 0.075 0  1 0.075 0  1 0.925 0  0 0.925 0  0.5 0.8127595604293815 0  0.5069440078039168 0.190422209288238 0  0.25 0.3127595604293815 0  0.756944007803917 0.3095777907117619 0  0.756944007803917 0.6904222092882382 0  0.25 0.6872404395706185 0  0 0.225 0  0.4255768646051012 0.2241073097134061 0  1 0.7749999999999999 0  0.6773391559270888 0.2766774022734219 0  1 0.225 0  0.6755768646051011 0.7241073097134062 0  0 0.7750000000000001 0  0.5818971135297744 0.2287925518358889 0  0.8318971135297746 0.728792551835889 0  0.1659156081861886 0.7301636995921477 0  0.08376842746533225 0.2299656297760495 0  0.4236002201977974 0.7746535834185855 0  0.0840843918138115 0.7698363004078523 0  0.3340843918138113 0.7301636995921477 0  0.3340843918138114 0.2698363004078523 0  0.9159156081861887 0.2301636995921477 0  0.5840843918138116 0.7698363004078522 0  0.1659156081861887 0.2698363004078523 0  0.9162315725346678 0.7700343702239506 0  0.8340843918138114 0.2698363004078523 0  0.75 0.6146645247768686 0  0.5 0.1125158665330878 0  0.75 0.3874841334669124 0  0.2504983345544904 0.6122915843562002 0  0.2504983345544902 0.3877084156437999 0  0.5 0.8879783056303169 0  0.7005361650220154 0.3333055947145943 0  0.70416808765371 0.6599554817221275 0  0.449930214263529 0.1678187287522426 0  0.2247310981387008 0.7415600637745463 0  0.5155081196221678 0.7563797802146907 0  0.2752689018612993 0.2584399362254537 0  0.05605196690611226 0.8246131191226815 0  0.943948033093887
[...]
<PointData  Scalars="Temperature"> 
<DataArray  type="Float64"  Name="Temperature"  format="ascii">8.0438850774320585e+01  8.2003157581609301e+01  8.2000576725104480e+01  8.1964999870274099e+01  8.1865501859594048e+01  8.1710725421434191e+01  8.1503603908016558e+01  8.1246166588887590e+01  8.0940770691817406e+01  8.0582802264273994e+01  8.0162044299961849e+01  7.9683071489422062e+01  7.9159544380202163e+01  7.8602697737277268e+01  7.8023334094241861e+01  7.7435572396855477e+01  7.6840433679276856e+01  7.6235117171094416e+01  7.5631172402150341e+01  7.5025451611326758e+01  7.4448066730007824e+01  7.3919698453084933e+01  7.3462596834257909e+01  7.3107490816274563e+01  7.2852007559044836e+01  7.2692801132958394e+01  7.2604222440668849e+01  7.2566713276950409e+01  7.2557101484298201e+01  7.2446351440103285e+01  7.2416505684032828e+01  7.2323247629056652e+01  7.2147048228411194e+01  7.1871250138485593e+01  7.1470425150175956e+01  7.0942708751151756e+01  7.0297136571539568e+01  6.9555247961792162e+01  6.8750203932039341e+01  6.7928347172546594e+01  6.7135875771262135e+01  6.6411029653446860e+01  6.5776147431183432e+01  6.5237637435026926e+01  6.4790253707097293e+01  6.4428151852488156e+01  6.4130886603491348e+01  6.3889127548352235e+01  6.3693664934296720e+01  6.3533058171305960e+01  6.3402143530397382e+01  6.3294363503278902e+01  6.3208734311150195e+01  6.3145032393088911e+01  6.3104101630520375e+01  6.3089491224581650e+01  6.3088302427443331e+01  6.3667984427855771e+01  6.3690679204910623e+01  6.3755269535078043e+01  6.3851435415939896e+01  6.3959614028782909e+01  6.4053813001616831e+01  6.4100047100143968e+01  6.4064637904885856e+01  6.3920889074936909e+01  6.3657335058099086e+01  6.3252290805371992e+01  6.2734193034137078e+01  6.2130017125699922e+01  6.1482318936035469e+01  6.0837305560278196e+01  6.0230976059016911e+01  5.9668209804819128e+01  5.9154197848136256e+01  5.8667831993073719e+01  5.8201983779086596e+01  5.7759905249498189e+01  5.7337017011118967e+01  5.6954755363982805e+01  5.6628675636199240e+01  5.6380651494274879e+01  5.6227245736592494e+01  5.6173382202080006e+01  5.4994477768342193e+01  5.4996287385216817e+01  5.5022905477582974e+01  5.5097568014563564e+01  5.5213784796969939e+01  5.5369851591081762e+01  5.5563893935634134e+01  5.5796084559701278e+01  5.6069828819720520e+01  5.6387005323264312e+01  5.6751235061436013e+01  5.7156668338202230e+01  5.7589022351586529e+01  5.8045169474388516e+01  5.8506606553691782e+01  5.8983938316043691e+01  5.9471174257667371e+01  5.9966401629251052e+01  6.0460066673183768e+01  6.0940101016819163e+01  6.1372683240573160e+01  6.1750848697968287e+01  6.2041029391017915e+01  6.2251547703348351e+01  6.2378866011724504e+01  6.2444689693882864e+01  6.2473460977628854e+01  6.2480232912095424e+01  6.2574662167904535e+01  6.2603783221551069e+01  6.2689738860267795e+01  6.2845824119962522e+01  6.3090961829282541e+01  6.3448691839388061e+01  6.3915098359835127e+01  6.4489107290465938e+01  6.5142214923299292e+01  6.5853108055655269e+01  6.6571530091009862e+01  6.7253680552229582e+01  6.7872686690961388e+01  6.8392926737859824e+01  6.8816604140537379e+01  6.9142493492083005e+01  6.9388552949592238e+01  6.9570922679573755e+01  6.9706881894752001e+01  6.9809520002339113e+01  6.9887774892522430e+01  6.9947912720144885e+01  6.9995864417227523e+01  7.0032662560583105e+01  7.0060016036116565e+01  7.0076696781640322e+01  7.0082979885137533e+01  7.0083180208959362e+01  6.9874853343375150e+01  6.9867363488031756e+01  6.9847951492426517e+01  6.9824783816623224e+01  6.9811801662535743e+01  6.9830338930807059e+01  6.9907203881964051e+01  7.0070439219923898e+01  7.0349356599179984e+01  7.0756823895815884e+01  7.1305215694023559e+01  7.1979421211715845e+01  7.2753237566499791e+01  7.3572980131497573e+01  7.4392181133179875e+01  7.5170071058872622e+01  7.5889309025043431e+01  7.6552913905264376e+01  7.7182430475830088e+01  7.7786212350581692e+01  7.8367613845442548e+01  7.8913647311983752e+01  7.9412399962225834e+01  7.9839969139588732e+01  8.0161717847243196e+01  8.0367012327663232e+01  6.0927241179969862e+01  6.1555399344359998e+01  6.2236283363751852e+01  6.2939988547342239e+01  6.3649887214647933e+01  6.4367582724344615e+01  6.5109780366152620e+01  6.5893639018272410e+01  6.6733244415712662e+01  6.7608981283694376e+01  6.8512150522019695e+01  6.9428905390402463e+01  7.0325895528628152e+01  7.1193104004224367e+01  7.2021793330140085e+01  7.2806510260425100e+01  7.3538591249778065e+01  7.4216385978056280e+01  7.4820480974727019e+01  7.5332841718748710e+01  7.5710658253509820e+01  7.5937805335426233e+01  7.5983393986922962e+01  7.5838086712576427e+01  7.5490575222369003e+01  7.4966475564831896e+01  7.4289227760152301e+01  7.3501430205970280e+01  7.2661667743277818e+01  7.1815150070930088e+01  7.0992926770043155e+01  7.0180102936763561e+01  6.9388429964650030e+01  6.8595985408497839e+01  6.7785792766007688e+01  6.6964282726115300e+01  6.6125062269023033e+01  6.5303807921556526e+01  6.4499935076629654e+01  6.3739611272487259e+01  6.3018402081422735e+01  6.2342704461913030e+01  6.1711614380625264e+01  6.1139423465098687e+01  6.0626133563870049e+01  6.0195882446996031e+01  5.9872955690740326e+01  5.9672939761481352e+01  5.9619970661911772e+01  5.9724345730037712e+01  5.9987565135274835e+01  6.0396756061123241e+01  8.1247341039496291e+01  6.3390054525646590e+01  5.5560813901173496e+01  6.9959781644453116e+01  8.1771654735522162e+01  6.3183014192515742e+01  5.5168007829258507e+01  7.0044051339308993e+01  6.2837492955523544e+01  7.2053918411420625e+01  7.7065284088518965e+01  6.5035538613246757e+01  5.8682278377236543e+01  6.9177647561534457e+01  8.0715241028744785e+01  7.3757632961614775e+01  5.5961901020016256e+01  6.6933100909067264e+01  6.3580117125309961e+01  5.9653046714848699e+01  6.9894929876673658e+01  7.0050352784462078e+01  5.7500608140218283e+01  6.9530517385824780e+01  8.0238896399325185e+01  6.4567371060849425e+01  6.9800443540680874e+01  6.7175912981102542e+01  7.5809875887409120e+01  6.3783262534735272e+01  6.1325785068510882e+01  7.8756049842873878e+01  5.6325351628154046e+01  6.4380382174344064e+01  5.9375572226895933e+01  7.2362623650852072e+01  6.4022655170274248e+01  7.0450749805268046e+01  7.6230142780178056e+01  6.2667125148679673e+01  6.5594135410964100e+01  5.9343298130286989e+01  7.3058046493486572e+01  6.8969068883328731e+01  6.2616240077866934e+01  7.6869286526681421e+01  6.9895604536250914e+01  6.3536663196598745e+01  8.0893287382204150e+01  5.5854403138802247e+01  7.2476092985215359e+01  5.8856286171193169e+01  6.5889724868220782e+01  6.3674357981966750e+01  6.9738586938459903e+01  7.7800775103295834e+01  6.8502744222732488e+01  7.6250998810610866e+01  6.1951670708407320e+01  7.2464051915464196e+01  6.2866335655057362e+01  6.0482860186514479e+01  7.5104331229837101e+01  7.2155853739792121e+01  6.2526453637622609e+01  6.2567027385705160e+01  7.7838889993623397e+01  6.8220599233930756e+01  7.1062948988281022e+01  5.8634974013575778e+01  6.4363257616164802e+01  6.8469898651220191e+01  7.4735343406001817e+01  7.5058601095795325e+01  6.0367680241765271e+01  6.0634962462598480e+01  6.8175225878161285e+01  5.8142861638619827e+01  6.5001559942171255e+01  6.1657147634867187e+01  7.2502388908915336e+01  7.3708249667384763e+01  6.5852359383463963e+01  6.6029533954029972e+01  7.1288802468061519e+01  5.6835410803147894e+01  5.6896412548770677e+01  6.3518282144745918e+01  7.9689848798293610e+01  6.9863256818703249e+01  6.3935495726909785e+01  6.9618034371545079e+01  7.9413501080310809e+01  6.9744591443622710e+01  6.3676945214655312e+01  6.4105964362479725e+01  5.6208126093032277e+01  8.0389377061882769e+01  6.3368375808940669e+01  5.5480085592516367e+01  8.1357389093293918e+01  6.9965835283412019e+01  6.4102710313464840e+01  5.8119389077997177e+01  7.1775838345909477e+01  5.9143739472479133e+01  6.1258597366357790e+01  6.7424477454318719e+01  7.8630684465432537e+01  6.3742172473932342e+01  7.5673133819569131e+01  6.9757798098280418e+01  6.9794741050961008e+01  8.0434528178637365e+01  5.6219098912260989e+01  7.0233309432503518e+01  7.6960316785318597e+01  6.2465477831267791e+01  5.7645283574010179e+01  7.6494959669101220e+01  6.9494766365482434e+01  6.6951983570424247e+01  6.6893625742825463e+01  6.4728949828724694e+01  7.3487212700905815e+01  5.9912411959686466e+01  7.4063207778653876e+01  5.9639624932536719e+01  6.3146931348911700e+01  6.4304979045629253e+01  6.9903031218423052e+01  6.5878801919560104e+01  5.7571205273136776e+01  6.9611094838072134e+01  6.9257267943569289e+01  7.5938839837449748e+01  6.7332446499391509e+01  7.8580583356402599e+01  6.4180679526440713e+01  6.1424527678584276e+01  7.2826718480407834e+01  8.0670383700847538e+01  6.4522519966245326e+01  6.3617792339519433e+01  6.9873087852070057e+01  6.2260780663736412e+01  6.9922288938205270e+01  6.3493421923872340e+01  6.4692390844456597e+01  5.5761627792362269e+01  7.2798135610381792e+01  6.4783466437063026e+01  6.4657800482308559e+01  7.2443554349548833e+01  8.0969355504622385e+01  5.9754425920834251e+01  5.9715681567984014e+01  5.8960780873696471e+01  7.1275861874041510e+01  7.6179333971342032e+01  6.9771956078735627e+01  7.6080669381246778e+01  6.9819956098813378e+01  7.2584684693958991e+01  7.2244548491033342e+01  6.3402400072684181e+01  6.3739502421900937e+01  6.2254001119211622e+01  6.2470595235171913e+01  6.2826439577557714e+01  5.5772288160603239e+01  6.9880009123210087e+01  5.5352451089345614e+01  6.3640138322030140e+01  8.0520242283784782e+01  6.3113446790069084e+01  8.1942053930946742e+01  6.3281202991579313e+01  6.3244998863371059e+01  8.1526557735544856e+01  5.5040129740353294e+01  7.0072749286664461e+01  5.6109533581024152e+01  7.0003654622935102e+01  7.0017328720976153e+01  7.5641476497224929e+01  7.1124843512730081e+01  6.9324698985949581e+01  7.6410781284504779e+01  6.3065955013043187e+01  5.6521305905810678e+01  6.8227097739328002e+01  7.7701180772962360e+01  5.8363005182736956e+01  5.9116706942132716e+01  6.3366331498013459e+01  5.6013859357128077e+01  6.1906597037567302e+01  7.1620999397194026e+01  6.9775882519657614e+01  7.6913770381918113e+01  7.9403678346730459e+01  6.9158492050353800e+01  7.1755336699124697e+01  6.5230137223993708e+01  6.4539537660232327e+01  6.2143940288927794e+01  5.9519696201861251e+01  5.9646193737679980e+01  5.5274493812872869e+01  8.1629591093772589e+01  7.9967875607703192e+01  5.8164711418966462e+01  6.8573929342667739e+01  7.7648453608563827e+01  6.4113149973469874e+01  7.0904419396669894e+01  5.9392126935137284e+01  6.3784983652183207e+01  6.5451911253745124e+01  7.4392875665217900e+01  6.0109667275830333e+01  6.5104616091340219e+01  8.1858253131186729e+01  6.3163843250097997e+01  5.5103465947660240e+01  7.0058148074044766e+01  6.5473674784934232e+01  6.0159795975154523e+01  7.3150943384537257e+01  6.9912359812287193e+01  6.9932569291388702e+01  6.3485270341260644e+01  6.3458144988323589e+01  6.6496245106382574e+01  8.0822759162737484e+01  8.0578968901963478e+01  8.1072608606016729e+01  7.3530380647086332e+01  7.3368608638339936e+01  8.0053156013453631e+01  6.3418267435253910e+01  6.9782629131841460e+01  6.9662242871573525e+01  6.3960129223851510e+01  6.6326748626636288e+01  6.5439294364315330e+01  7.4689816175073048e+01  6.0359073068204189e+01  5.5652864817465677e+01  5.9536997064567743e+01  5.9046061502553783e+01  7.0416181945525651e+01  6.2490271341222751e+01  6.4170299431272383e+01  7.2531954403280082e+01  7.2452225689144583e+01  6.2252744300747871e+01  6.2593356249121911e+01  7.4421467849505362e+01  7.4800771748655478e+01  6.6414055502627406e+01  5.7207165258925578e+01  6.2611504270246833e+01  6.8333002214367255e+01  7.6299274947560065e+01  6.6601793121965201e+01  7.8201270248916998e+01  6.7929554014668682e+01  6.8721273254577071e+01  6.9323087920547906e+01  7.6613920259346884e+01  7.7246318917349242e+01  6.8910036476838556e+01  6.1624426837328308e+01  6.1941849422545587e+01  7.6627340610556374e+01  6.9602296923718029e+01  7.6085157970567536e+01  7.8044882162813437e+01  6.8246727436553456e+01  7.0053464254900632e+01  6.2381042656710541e+01  6.1060061665799672e+01  6.1159012700986210e+01  7.3086857004015158e+01  7.2937534287327267e+01  7.9206866090109202e+01  5.9314820432293601e+01  5.9114147001785177e+01  5.8775064189692117e+01  7.4199568906046693e+01  6.0090934454413969e+01  6.2778912484604611e+01  7.4108593486118266e+01  6.3625655570497848e+01  6.4015785956559796e+01  6.5338723977995059e+01  7.2430462947548421e+01  7.2253297228759152e+01  6.6317994187263011e+01  6.7568373161425313e+01  5.6068840288038963e+01  7.9932498386578189e+01  6.4093961603395229e+01  7.1226676099488714e+01  5.6952010050248241e+01  5.6555303832273012e+01  6.4657858029331265e+01  6.4391624791635280e+01  6.4250633177501001e+01  6.9445093645737728e+01  7.5098939967568867e+01  7.5395578387496869e+01  6.0735755962028023e+01  6.0915253445347787e+01  6.5460618693653473e+01  7.0322230960093790e+01  7.2126313253725598e+01  6.9301975309890835e+01  6.3949207957761352e+01  5.9790499904455693e+01  6.3675303060374560e+01  6.9846321525574226e+01  7.0810525096262467e+01  5.4995393687810726e+01  6.3088860684343047e+01  8.2002072213992989e+01  7.0083149239514071e+01  7.2569418667339207e+01  6.8971236847968100e+01  7.5296792771303174e+01  6.4199836516258685e+01  5.9940788514579765e+01  6.4080171771317538e+01  7.2357220657961747e+01  7.2564346766364736e+01  7.5739261964943978e+01  6.4891779306475655e+01  5.7274233516971393e+01  5.7013456625214445e+01  5.6644533668635887e+01  5.7231903803706182e+01  6.0946270323514106e+01  7.5416294782806432e+01  7.0758760489377678e+01  6.2534483738259567e+01  6.2494280593159189e+01  6.2619490794059345e+01  6.0689816395559866e+01  6.0269133508708691e+01  7.2133833545049441e+01  7.1905291301768656e+01  7.9027140691922867e+01  7.6005290463034143e+01  6.5298695305336906e+01  7.9849206521907547e+01  6.9538374233325186e+01  6.6591867985352252e+01  6.3498465958761429e+01  8.0597178416794506e+01  7.3146818765230520e+01  5.8671827295167382e+01  5.8607269405892332e+01  5.5968460162005179e+01  6.9133437377850839e+01  7.8348885227905512e+01  6.7707755153508160e+01  6.9501669336052487e+01  6.9651649291709973e+01  6.9723302906801038e+01  7.3987922938405475e+01  6.1889684014585121e+01  8.1104489190698303e+01  5.6475561570480181e+01  7.5520862553688630e+01  6.7680487565381924e+01  6.9901816870600925e+01  6.3533292728042994e+01  5.9031506416001378e+01  6.6287950559723356e+01  7.5884862266384019e+01  6.1566713303981182e+01  7.7502085892457984e+01  6.2855881100661307e+01  5.6062360149959240e+01  6.9798842721934889e+01  6.7687682695501138e+01  7.5082291878624787e+01  6.3860070256779721e+01  7.2417816725882972e+01  6.3115021831477392e+01  7.0075636789156164e+01  8.1959697680974571e+01  5.5026574114571169e+01  6.8563011739273435e+01  6.4335234556106485e+01  5.6823573525749261e+01  6.4291690215650561e+01  6.9684021473544874e+01  6.7526155203060739e+01  6.3798372475403646e+01  6.1074444794353376e+01  8.0198135445271461e+01  6.9855632933062552e+01  6.9781826046559146e+01  6.8994157176466629e+01  6.4660760180583424e+01  6.5972592534640668e+01  6.6802595380099660e+01  6.9858873432153189e+01  6.3709793811246684e+01  6.9882333872409163e+01  6.3732502139685323e+01  7.1528437037312870e+01  7.7149479133869420e+01  7.0569313813955546e+01  5.7917066369997912e+01  7.7374136663485942e+01  6.2762346287868951e+01  5.7757866532381200e+01  5.8486586908364288e+01  5.8443350913351900e+01  6.5601440890054846e+01  6.2723438378308614e+01  5.6184905905184891e+01  7.2106325212930813e+01  7.8228764007548264e+01  6.7606797235015989e+01  6.2889797584175199e+01  5.9607239458933726e+01  7.0350677946160616e+01  6.9730332498990933e+01  5.5864705444661247e+01  7.6811263387194444e+01  6.8951325218332528e+01  7.2463641974655232e+01  6.2559791469880636e+01  7.2541104594254534e+01  7.1870135240247421e+01  7.8878172808946303e+01  6.3624625357488419e+01  6.9860753030086201e+01  6.9831868036580587e+01  6.3704602303784853e+01  6.3614410770007503e+01  6.3611257722496134e+01  5.5979612174304584e+01  8.0878832588825247e+01  6.9098220680672910e+01  7.6691200003690511e+01  6.2459940901074106e+01  7.1883183512776114e+01  7.0648938910551323e+01  6.8445432135357663e+01  7.3112420732244175e+01  7.6043522382796979e+01  7.7407017921659687e+01  6.4028346354685439e+01  6.9987405487948763e+01  6.3346097591288505e+01  5.7374113356034933e+01  6.9875110628840488e+01  6.3953499972371269e+01  7.9650634856394163e+01  6.3901476431881655e+01  7.9119541341376504e+01  7.9487478628206247e+01  5.6349897056556927e+01  5.6180445586962762e+01  8.0427804331501179e+01  8.0453792098802552e+01  7.4797160731152147e+01  6.4189348527162210e+01  6.3297853943374946e+01  6.3940704213704642e+01  6.4113539798600115e+01  6.3093749057240139e+01  6.5453242102320843e+01  5.5729711933481354e+01  6.2201975701072435e+01  6.5241394055186589e+01  7.6258440880588523e+01  7.4487961107061281e+01  6.4268569270885365e+01  6.2252660388153046e+01  6.2352625172846466e+01  6.3732890705271082e+01  5.9166719429128626e+01  7.5823723397249580e+01  7.2750247496016840e+01  6.9898964786931913e+01  7.0430024272671133e+01  7.0210924747548347e+01  7.6645429764687535e+01  5.5454691013340607e+01  8.1388906371060699e+01  8.1263506019132294e+01  8.1276075731745152e+01  5.5586563241895114e+01  5.5377392376469992e+01  5.7529965589719183e+01  6.9026710005422970e+01  5.8019289116085567e+01  7.1462443154429252e+01  5.9402799661640202e+01  6.3451406691656253e+01  6.3387301007792743e+01  6.9933800589717904e+01  6.9981152957048010e+01  6.9960647504224951e+01  6.2452971909813698e+01  8.1495327991319371e+01  6.9994903322028335e+01  6.3301134408418783e+01  5.6478548324341901e+01  7.1477395817969310e+01  6.3059768847758022e+01  7.0413569499215001e+01  7.6549983671203591e+01  6.9952953747202898e+01  6.3659326670810763e+01  6.9875928627532872e+01  6.0621968798529956e+01  5.8352460639567731e+01  5.8397852187899602e+01  5.7751045334470128e+01  7.8062334453319437e+01  6.2747816035471189e+01  8.0304857489609162e+01  5.7991223788451933e+01  6.9748765539303335e+01  6.3805354588487049e+01  7.0744987186406888e+01  7.1407114900496381e+01  5.5519124318390382e+01  6.3334939851753120e+01  8.0273260888784819e+01  5.8705889618843308e+01  6.3093959871840674e+01  6.0289448079201982e+01  7.5528189212109368e+01  6.7880200015191420e+01  6.1717127702582118e+01  6.3161459844264108e+01  6.1865995182821017e+01  6.4005691922356192e+01  7.8248821491001067e+01  7.3778692487977992e+01  6.6933475290888182e+01  6.4731736636076747e+01  6.4118233673429415e+01  6.4941185661217432e+01  6.5155403057446037e+01  6.2648304922670206e+01  6.9259668367767176e+01  6.9817195360097614e+01  6.7232235628790903e+01  6.3660382290421595e+01  6.9873293231874371e+01  6.3871587209827602e+01  7.6807133435523681e+01  6.9416491024034343e+01  7.2589686002370769e+01  7.2510330112539364e+01  7.2946220928586470e+01  6.4585216607504677e+01  6.4744132014149585e+01  5.9297269267698269e+01  5.9341424369630943e+01  5.9030999919361328e+01  6.6119177100316506e+01  5.6160038386709793e+01  6.3626381353661081e+01  6.7150078982288804e+01  8.0335102840098813e+01  8.0689157688831486e+01  7.9012945675460074e+01  6.6888253413577687e+01  6.7926387177478404e+01  6.7389242379271337e+01  6.3938877737837508e+01  6.1183133972097643e+01  7.8481103838891755e+01  7.5570480043271957e+01  5.6221500608103561e+01  7.2975702213210440e+01  7.3628818815433362e+01  6.4206615147636711e+01  7.8002405863219934e+01  6.0074954272556340e+01  7.3812252881378484e+01  5.9819961197128620e+01  7.3924795596835949e+01  6.4529762659325598e+01  6.4952671616317915e+01  6.1608250652708350e+01  7.5925743154190698e+01  6.1411827671783293e+01  5.9693620028682830e+01  6.4740138698655983e+01  6.4166590571925596e+01  7.5986917357700818e+01  6.2847730189523936e+01  6.6970167415520251e+01  7.2821308169958272e+01  6.7005453803399519e+01  6.1142230216796648e+01  7.3692405907097267e+01  5.5377348142451595e+01  8.1444531412577987e+01  7.29