<?xml version="1.0"?>
<VTKFile type="UnstructuredGrid"  version="0.1"  >
<UnstructuredGrid>
<Piece  NumberOfPoints="2331" NumberOfCells="4248">
<Points>
<DataArray  type="Float64"  NumberOfComponents="3"  format="ascii">0 0.3 0  0 0 0  0.04999999999999999 0 0  0.0514582251803892 0.02410733605106462 0  0.0558116365147896 0.04786313285751154 0  0.06299675146291706 0.07092097740850717 0  0.07290879486935808 0.09294463440875382 0  0.08540322682126872 0.1136129493462312 0  0.1002978503657798 0.132624531648159 0  0.117375468351841 0.1497021496342203 0  0.1363870506537689 0.1645967731787313 0  0.1570553655912463 0.177091205130642 0  0.1790790225914929 0.187003248537083 0  0.2021368671424885 0.1941883634852104 0  0.2258926639489354 0.1985417748196108 0  0.25 0.2 0  0.2741073360510646 0.1985417748196108 0  0.2978631328575116 0.1941883634852104 0  0.3209209774085071 0.187003248537083 0  0.3429446344087537 0.177091205130642 0  0.3636129493462312 0.1645967731787313 0  0.3826245316481591 0.1497021496342202 0  0.3997021496342202 0.132624531648159 0  0.4145967731787313 0.1136129493462312 0  0.427091205130642 0.09294463440875371 0  0.4370032485370829 0.07092097740850713 0  0.4441883634852104 0.04786313285751155 0  0.4485417748196108 0.02410733605106461 0  0.45 0 0  0.55 0 0  0.5514582251803892 0.02410733605106462 0  0.5558116365147896 0.04786313285751154 0  0.5629967514629171 0.07092097740850717 0  0.5729087948693581 0.09294463440875382 0  0.5854032268212688 0.1136129493462312 0  0.6002978503657798 0.132624531648159 0  0.617375468351841 0.1497021496342203 0  0.6363870506537689 0.1645967731787313 0  0.6570553655912463 0.177091205130642 0  0.6790790225914929 0.187003248537083 0  0.7021368671424885 0.1941883634852104 0  0.7258926639489354 0.1985417748196108 0  0.75 0.2 0  0.7741073360510646 0.1985417748196108 0  0.7978631328575116 0.1941883634852104 0  0.8209209774085071 0.187003248537083 0  0.8429446344087537 0.177091205130642 0  0.8636129493462312 0.1645967731787313 0  0.8826245316481591 0.1497021496342202 0  0.8997021496342202 0.132624531648159 0  0.9145967731787312 0.1136129493462312 0  0.927091205130642 0.09294463440875371 0  0.9370032485370829 0.07092097740850713 0  0.9441883634852104 0.04786313285751155 0  0.9485417748196108 0.02410733605106461 0  0.95 0 0  1 0 0  1 0.3 0  0.9758926639489353 0.3014582251803892 0  0.9521368671424885 0.3058116365147896 0  0.9290790225914928 0.3129967514629171 0  0.9070553655912461 0.3229087948693581 0  0.8863870506537688 0.3354032268212687 0  0.867375468351841 0.3502978503657798 0  0.8502978503657798 0.367375468351841 0  0.8354032268212687 0.3863870506537689 0  0.822908794869358 0.4070553655912464 0  0.8129967514629171 0.4290790225914929 0  0.8058116365147896 0.4521368671424885 0  0.8014582251803892 0.4758926639489354 0  0.8 0.4999999999999999 0  0.8014582251803892 0.5241073360510646 0  0.8058116365147896 0.5478631328575115 0  0.8129967514629171 0.5709209774085071 0  0.8229087948693581 0.5929446344087538 0  0.8354032268212688 0.6136129493462312 0  0.8502978503657798 0.632624531648159 0  0.867375468351841 0.6497021496342202 0  0.8863870506537689 0.6645967731787313 0  0.9070553655912463 0.677091205130642 0  0.9290790225914929 0.6870032485370829 0  0.9521368671424885 0.6941883634852104 0  0.9758926639489354 0.6985417748196108 0  1 0.7 0  1 1 0  0.95 1 0  0.9485417748196108 0.9758926639489353 0  0.9441883634852104 0.9521368671424885 0  0.9370032485370829 0.9290790225914928 0  0.927091205130642 0.9070553655912463 0  0.9145967731787312 0.8863870506537688 0  0.8997021496342201 0.8673754683518409 0  0.882624531648159 0.8502978503657798 0  0.863612949346231 0.8354032268212686 0  0.8429446344087537 0.822908794869358 0  0.8209209774085071 0.8129967514629171 0  0.7978631328575114 0.8058116365147896 0  0.7741073360510646 0.8014582251803892 0  0.75 0.8 0  0.7258926639489353 0.8014582251803892 0  0.7021368671424885 0.8058116365147896 0  0.6790790225914928 0.8129967514629171 0  0.6570553655912461 0.8229087948693581 0  0.6363870506537688 0.8354032268212688 0  0.617375468351841 0.8502978503657798 0  0.6002978503657798 0.867375468351841 0  0.5854032268212687 0.8863870506537689 0  0.572908794869358 0.9070553655912463 0  0.5629967514629171 0.9290790225914929 0  0.5558116365147896 0.9521368671424885 0  0.5514582251803892 0.9758926639489355 0  0.55 0.9999999999999999 0  0.45 0.9999999999999999 0  0.4485417748196108 0.9758926639489353 0  0.4441883634852104 0.9521368671424885 0  0.4370032485370829 0.9290790225914928 0  0.427091205130642 0.9070553655912463 0  0.4145967731787313 0.8863870506537688 0  0.3997021496342201 0.8673754683518409 0  0.382624531648159 0.8502978503657798 0  0.363612949346231 0.8354032268212686 0  0.3429446344087536 0.822908794869358 0  0.3209209774085071 0.8129967514629171 0  0.2978631328575115 0.8058116365147896 0  0.2741073360510646 0.8014582251803892 0  0.25 0.8 0  0.2258926639489353 0.8014582251803892 0  0.2021368671424885 0.8058116365147896 0  0.1790790225914928 0.8129967514629171 0  0.1570553655912462 0.8229087948693581 0  0.1363870506537688 0.8354032268212688 0  0.117375468351841 0.8502978503657798 0  0.1002978503657797 0.867375468351841 0  0.08540322682126869 0.8863870506537689 0  0.07290879486935797 0.9070553655912463 0  0.06299675146291703 0.9290790225914929 0  0.05581163651478957 0.9521368671424885 0  0.0514582251803892 0.9758926639489355 0  0.04999999999999999 0.9999999999999999 0  0 1 0  -0 0.7000000000000001 0  0.0241073360510646 0.6985417748196108 0  0.04786313285751161 0.6941883634852104 0  0.07092097740850711 0.6870032485370829 0  0.09294463440875372 0.677091205130642 0  0.1136129493462312 0.6645967731787312 0  0.1326245316481591 0.6497021496342202 0  0.1497021496342202 0.632624531648159 0  0.1645967731787313 0.6136129493462312 0  0.177091205130642 0.5929446344087537 0  0.187003248537083 0.5709209774085071 0  0.1941883634852104 0.5478631328575115 0  0.1985417748196108 0.5241073360510646 0  0.2 0.5 0  0.1985417748196108 0.4758926639489353 0  0.1941883634852104 0.4521368671424885 0  0.1870032485370829 0.4290790225914928 0  0.177091205130642 0.4070553655912463 0  0.1645967731787313 0.3863870506537688 0  0.1497021496342202 0.3673754683518409 0  0.132624531648159 0.3502978503657798 0  0.113612949346231 0.3354032268212686 0  0.09294463440875361 0.322908794869358 0  0.07092097740850711 0.3129967514629171 0  0.04786313285751148 0.3058116365147896 0  0.02410733605106464 0.3014582251803892 0  0.6985417748196108 0.5241073360510646 0  0.7 0.5 0  0.6985417748196108 0.4758926639489353 0  0.6941883634852104 0.4521368671424885 0  0.6870032485370829 0.4290790225914928 0  0.677091205130642 0.4070553655912463 0  0.6645967731787312 0.3863870506537688 0  0.6497021496342201 0.3673754683518409 0  0.632624531648159 0.3502978503657798 0  0.613612949346231 0.3354032268212686 0  0.5929446344087537 0.322908794869358 0  0.5709209774085071 0.3129967514629171 0  0.5478631328575114 0.3058116365147896 0  0.5241073360510646 0.3014582251803892 0  0.4999999999999999 0.3 0  0.4758926639489353 0.3014582251803892 0  0.4521368671424885 0.3058116365147896 0  0.4290790225914928 0.3129967514629171 0  0.4070553655912462 0.3229087948693581 0  0.3863870506537688 0.3354032268212687 0  0.367375468351841 0.3502978503657798 0  0.3502978503657798 0.367375468351841 0  0.3354032268212687 0.3863870506537689 0  0.322908794869358 0.4070553655912464 0  0.3129967514629171 0.4290790225914929 0  0.3058116365147896 0.4521368671424885 0  0.3014582251803892 0.4758926639489354 0  0.3 0.4999999999999999 0  0.3014582251803892 0.5241073360510646 0  0.3058116365147896 0.5478631328575115 0  0.3129967514629171 0.5709209774085071 0  0.3229087948693581 0.5929446344087538 0  0.3354032268212687 0.6136129493462312 0  0.3502978503657798 0.632624531648159 0  0.367375468351841 0.6497021496342202 0  0.3863870506537689 0.6645967731787313 0  0.4070553655912463 0.677091205130642 0  0.4290790225914929 0.6870032485370829 0  0.4521368671424885 0.6941883634852104 0  0.4758926639489354 0.6985417748196108 0  0.4999999999999999 0.7 0  0.5241073360510646 0.6985417748196108 0  0.5478631328575116 0.6941883634852104 0  0.5709209774085071 0.6870032485370829 0  0.5929446344087537 0.677091205130642 0  0.6136129493462312 0.6645967731787312 0  0.6326245316481591 0.6497021496342202 0  0.6497021496342202 0.632624531648159 0  0.6645967731787312 0.6136129493462312 0  0.677091205130642 0.5929446344087537 0  0.6870032485370829 0.5709209774085071 0  0.6941883634852104 0.5478631328575115 0  0 0.15 0  1 0.15 0  1 0.85 0  0 0.8500000000000001 0  0 0.075 0  1 0.075 0  1 0.925 0  0 0.925 0  0.5 0.8127595604293815 0  0.5069440078039168 0.190422209288238 0  0.25 0.3127595604293815 0  0.756944007803917 0.3095777907117619 0  0.756944007803917 0.6904222092882382 0  0.25 0.6872404395706185 0  0 0.225 0  0.4255768646051012 0.2241073097134061 0  1 0.7749999999999999 0  0.6773391559270888 0.2766774022734219 0  1 0.225 0  0.6755768646051011 0.7241073097134062 0  0 0.7750000000000001 0  0.5818971135297744 0.2287925518358889 0  0.8318971135297746 0.728792551835889 0  0.1659156081861886 0.7301636995921477 0  0.08376842746533225 0.2299656297760495 0  0.4236002201977974 0.7746535834185855 0  0.0840843918138115 0.7698363004078523 0  0.3340843918138113 0.7301636995921477 0  0.3340843918138114 0.2698363004078523 0  0.9159156081861887 0.2301636995921477 0  0.5840843918138116 0.7698363004078522 0  0.1659156081861887 0.2698363004078523 0  0.9162315725346678 0.7700343702239506 0  0.8340843918138114 0.2698363004078523 0  0.75 0.6146645247768686 0  0.5 0.1125158665330878 0  0.75 0.3874841334669124 0  0.2504983345544904 0.6122915843562002 0  0.2504983345544902 0.3877084156437999 0  0.5 0.8879783056303169 0  0.7005361650220154 0.3333055947145943 0  0.70416808765371 0.6599554817221275 0  0.449930214263529 0.1678187287522426 0  0.2247310981387008 0.7415600637745463 0  0.5155081196221678 0.7563797802146907 0  0.2752689018612993 0.2584399362254537 0  0.05605196690611226 0.8246131191226815 0  0.943948033093887
[...]
<PointData  Scalars="Temperature"> 
<DataArray  type="Float64"  Name="Temperature"  format="ascii">1.4531367255887321e+02  1.5888294061358039e+02  1.5886033705162777e+02  1.5854810279364619e+02  1.5767565498450037e+02  1.5632121904829395e+02  1.5451472640473187e+02  1.5228134290399439e+02  1.4964775841575874e+02  1.4658271055249972e+02  1.4300578064364038e+02  1.3895810940987272e+02  1.3455366874614077e+02  1.2988118243241914e+02  1.2502926218798861e+02  1.2011435003867435e+02  1.1515773003121198e+02  1.1016042006010522e+02  1.0523773504160448e+02  1.0037369148654639e+02  9.5796122275838158e+01  9.1634058800679099e+01  8.8030008165371413e+01  8.5175611047651657e+01  8.3043746795271360e+01  8.1606139661956533e+01  8.0716554150777398e+01  8.0265153511995294e+01  8.0132867275711121e+01  7.9429966371361431e+01  7.9319332219328402e+01  7.8948945538960970e+01  7.8187570881412015e+01  7.6918689023660164e+01  7.4988968428850171e+01  7.2388822552435997e+01  6.9191130797742218e+01  6.5519762557021494e+01  6.1565671989989923e+01  5.7563435877604910e+01  5.3723335511798211e+01  5.0206143613565729e+01  4.7088634214386758e+01  4.4381894554308637e+01  4.2063592693617686e+01  4.0120948681407747e+01  3.8477003088709637e+01  3.7111824829738026e+01  3.5998784018681889e+01  3.5084956556371424e+01  3.4345908096768198e+01  3.3744839237507939e+01  3.3273287383681719e+01  3.2925993169781918e+01  3.2704389821276592e+01  3.2625563026191152e+01  3.2619136796408256e+01  3.5977617534787122e+01  3.6132035652819290e+01  3.6579352493343059e+01  3.7277820516644390e+01  3.8140359139563650e+01  3.9056014887005155e+01  3.9878672933062759e+01  4.0484610537049413e+01  4.0759828477967311e+01  4.0666676010707157e+01  4.0152777433357002e+01  3.9326468076340731e+01  3.8284343017288911e+01  3.7155206606069463e+01  3.6057745333118355e+01  3.5052581370639693e+01  3.4136672358257606e+01  3.3300789350521605e+01  3.2490011006232301e+01  3.1684464508241437e+01  3.0896782928110010e+01  3.0122701436006210e+01  2.9414007486077587e+01  2.8805379695676148e+01  2.8342019396595724e+01  2.8055402748056572e+01  2.7954789109393115e+01  2.5953525492157510e+01  2.5956586732414475e+01  2.6001055680707548e+01  2.6126269597588205e+01  2.6322872336855845e+01  2.6590481844501916e+01  2.6930515156148232e+01  2.7348239743524775e+01  2.7855243847871922e+01  2.8462684005529066e+01  2.9186478949801629e+01  3.0029117907726182e+01  3.0975189749932937e+01  3.2035728400083677e+01  3.3185014773888000e+01  3.4458907828792157e+01  3.5838086993571231e+01  3.7309438638499564e+01  3.8822676335645937e+01  4.0316431774285981e+01  4.1664921685830059e+01  4.2826954326839200e+01  4.3682976565083329e+01  4.4262434566234084e+01  4.4560987112970480e+01  4.4665413761093589e+01  4.4682803964920147e+01  4.4677616342931891e+01  4.5030709084363686e+01  4.5175379300560245e+01  4.5594781496340694e+01  4.6328850046346716e+01  4.7444639805954452e+01  4.9024398822346839e+01  5.1049467253433669e+01  5.3516731260156142e+01  5.6306962605090277e+01  5.9336906682272527e+01  6.2384752769294018e+01  6.5252233801223511e+01  6.7799535828749015e+01  6.9862367041239523e+01  7.1429875630230654e+01  7.2490422738028613e+01  7.3143025079862724e+01  7.3468760163370717e+01  7.3559151419193071e+01  7.3498292516174033e+01  7.3335316559835221e+01  7.3108411662863617e+01  7.2857694220952482e+01  7.2615230598492772e+01  7.2410657926122525e+01  7.2277128044837724e+01  7.2225387639406975e+01  7.2224169857308809e+01  7.4375788683914323e+01  7.4417324592115278e+01  7.4546262649298569e+01  7.4777548126313079e+01  7.5152416627573785e+01  7.5733812282911884e+01  7.6625046491637278e+01  7.7938692951568271e+01  7.9809318987941012e+01  8.2297888630103657e+01  8.5478975097465778e+01  8.9287300147679900e+01  9.3617344157534106e+01  9.8207558295379940e+01  1.0284384932421345e+02  1.0734242982645497e+02  1.1165779844889286e+02  1.1585863771793251e+02  1.2009862811331365e+02  1.2439420482845522e+02  1.2873656009250644e+02  1.3296652797871755e+02  1.3693100959382517e+02  1.4038996185180486e+02  1.4302539274693376e+02  1.4471927710819509e+02  3.6334217736808696e+01  3.7441290613075864e+01  3.8775083914762753e+01  4.0322731088649903e+01  4.2096893057339621e+01  4.4173341274130081e+01  4.6647135585752316e+01  4.9576652167428165e+01  5.3031739961538463e+01  5.6903889654720572e+01  6.1153546306280688e+01  6.5713830083022046e+01  7.0432381203657926e+01  7.5268774828601707e+01  8.0166771423621327e+01  8.5113793019298200e+01  9.0018757158323851e+01  9.4834030829456452e+01  9.9356402833019729e+01  1.0342039742765651e+02  1.0666622163983649e+02  1.0895042109057222e+02  1.1002773890253646e+02  1.0982906834098488e+02  1.0830466428454554e+02  1.0563708951477547e+02  1.0201440227832587e+02  9.7732238347310229e+01  9.3161262468467399e+01  8.8587848856216453e+01  8.4214817877221279e+01  7.9996782236689356e+01  7.6012186672213332e+01  7.2154031660154686e+01  6.8350902130406027e+01  6.4623166059458782e+01  6.0920563245669385e+01  5.7392800327488658e+01  5.4032815592579560e+01  5.0944930065933292e+01  4.8102835801217587e+01  4.5526974276752632e+01  4.3191703309830508e+01  4.1125942418544149e+01  3.9287249865224972e+01  3.7721424567309121e+01  3.6463666421825423e+01  3.5536786274793286e+01  3.4973584080744779e+01  3.4786513908312699e+01  3.4972395161399916e+01  3.5500958549241091e+01  1.5227324492515450e+02  3.4280807654527123e+01  2.6907866876174303e+01  7.3252139727481733e+01  1.5685212136299364e+02  3.3131912380426989e+01  2.6243695588227986e+01  7.2549466008098378e+01  4.6966743695237987e+01  7.9265284309198805e+01  1.1787661155922356e+02  4.4704623180593593e+01  3.3080179699184093e+01  7.4113095541701256e+01  1.4767109641567603e+02  9.0999327044951016e+01  2.7591484740136448e+01  5.3272072414864368e+01  3.5404988650167809e+01  3.6133102029403290e+01  7.3981242575592759e+01  6.8433391867104334e+01  3.0592008681701238e+01  7.4343611470577585e+01  1.4366651958070153e+02  5.4072048110789439e+01  7.4081881757835689e+01  6.5248432999417929e+01  1.0694100238172562e+02  3.6628541539960686e+01  4.1697500657707117e+01  1.3141383818994248e+02  2.8284700194059567e+01  4.0400463464646123e+01  3.3926199003721152e+01  7.9932731853176293e+01  4.2381221164702552e+01  8.1034788514764330e+01  1.1303295643787891e+02  4.5820504207958358e+01  4.7897974241546159e+01  3.4579488862017215e+01  8.5407957905471889e+01  7.2411671564879384e+01  4.6425508611846794e+01  1.1559217765565357e+02  7.3547337175139631e+01  3.5120717566105370e+01  1.4922382513873384e+02  2.7423040129998956e+01  8.2621337656726311e+01  3.3939695422684657e+01  4.7988522483997023e+01  5.0167169066262254e+01  7.6278395028248880e+01  1.2411676168193254e+02  7.1445193185154196e+01  1.1115938510918534e+02  4.3654569839853508e+01  7.9828534813662870e+01  3.9866653550321963e+01  3.5535672715412097e+01  1.0668964407280687e+02  9.0354920709006265e+01  4.4845760764608372e+01  4.5127050518357720e+01  1.2375348171788153e+02  6.9590620246618315e+01  7.3331043538381749e+01  3.2588457553660959e+01  4.1421221611637094e+01  6.0383134371469986e+01  9.8503243962107859e+01  1.0075646571081012e+02  3.8517464524036079e+01  3.9359093700467888e+01  5.9316654521434053e+01  3.2074559306341875e+01  4.3466668268162806e+01  3.7543445252432292e+01  7.9780875686987713e+01  9.8914783575388441e+01  5.9436771554132967e+01  6.0387944127203944e+01  7.5314025457725194e+01  2.9308106711601923e+01  2.9345118233198260e+01  4.9831666541687639e+01  1.3913554206703819e+02  7.4248179072964064e+01  3.7744564868407295e+01  7.3864120607572488e+01  1.3673184199384266e+02  7.4659422293815751e+01  3.6022292458713373e+01  3.8472340058516998e+01  2.8033952872409138e+01  1.4491867798770744e+02  3.4157349128578403e+01  2.6776395701128045e+01  1.5323779732561209e+02  7.3105333055159818e+01  4.1647081413130152e+01  3.1773585587495806e+01  7.6762705889860541e+01  3.4448965278954915e+01  4.1367705319554588e+01  6.6587583227069828e+01  1.3064169993933649e+02  3.6304245028562846e+01  1.0610962045139173e+02  7.5651222670710808e+01  7.3690129840705637e+01  1.4531672942136780e+02  2.8120753465406903e+01  7.9413947657598456e+01  1.1824389189924845e+02  4.5325365335847088e+01  3.0746740774429238e+01  1.1390121130121166e+02  7.6137971164971319e+01  5.2987735079062219e+01  5.3507683898470148e+01  5.4604162294116378e+01  8.9470143190243803e+01  3.6781312873670821e+01  9.2921782972363474e+01  3.6270172716511027e+01  4.7803978813142450e+01  5.3146130351638945e+01  6.8013619200625655e+01  4.8486573443570073e+01  3.0870259445528397e+01  6.5917369433793922e+01  7.3078145808633778e+01  1.0780171815927331e+02  6.5695277576541187e+01  1.2977640611558644e+02  3.9779034179023398e+01  4.2123199708102383e+01  8.4391908243570057e+01  1.4730210684356268e+02  4.0782452903634606e+01  3.5621927144384244e+01  7.3910593072938426e+01  4.4933603899768293e+01  7.3628274214155311e+01  3.4879175694718420e+01  4.2407623923009332e+01  2.7275481928235749e+01  8.2987469851913076e+01  4.4527185681845644e+01  4.4810112916357518e+01  8.1087691754707279e+01  1.4986086439406895e+02  3.4343452622989247e+01  3.4586254928802205e+01  3.3385102632654103e+01  8.5421521881824049e+01  1.1326474449702053e+02  7.7814658816682666e+01  1.1113796550983493e+02  7.4516412031267507e+01  8.0953507677613842e+01  7.8826542430344603e+01  4.0662085392269702e+01  4.2119890115152451e+01  4.4393209738180971e+01  4.4919218794805452e+01  4.6320338685014057e+01  2.7268037895629615e+01  7.4258665344558793e+01  2.6554606370358268e+01  3.5790472865304501e+01  1.4600444382604027e+02  3.2754673147789177e+01  1.5834646273357353e+02  3.3670946816704827e+01  3.3471585168591361e+01  1.5470774858994042e+02  2.6029629169148979e+01  7.2311841002972997e+01  2.7844633844767799e+01  7.2880264560901978e+01  7.2743480550167334e+01  1.0936092363768611e+02  8.4821421144122183e+01  7.4291154117466178e+01  1.1202039583602843e+02  4.7660266311852794e+01  2.8617862654687702e+01  6.9335072918069628e+01  1.2239989339122219e+02  3.2751697031018416e+01  3.3308655722442275e+01  4.9399661526972046e+01  2.7692344464335747e+01  4.3785804749871510e+01  7.7597249740992055e+01  7.7194514480162212e+01  1.1735117850855198e+02  1.3672867408920149e+02  6.4028195120105096e+01  7.7085673539284670e+01  4.4990986936214874e+01  4.3031443164820999e+01  4.4743828866900763e+01  3.5486203365304952e+01  3.5639052198833085e+01  2.6424262977554573e+01  1.5561007590332591e+02  1.4138125782100687e+02  3.1675361194218585e+01  7.1462917096120762e+01  1.2254398930779762e+02  3.8739548081558553e+01  7.2844812996696120e+01  3.4253988162520741e+01  3.6719011545320335e+01  4.7740809628825268e+01  9.5627770441912759e+01  3.7584755612420196e+01  5.6424281079703995e+01  1.5761157647074140e+02  3.3027815389724019e+01  2.6135769367516772e+01  7.2429449838971266e+01  5.7750438114506473e+01  3.5115225483881339e+01  8.6906255754615117e+01  7.3318636732312385e+01  7.3450723532943442e+01  3.4817021560205596e+01  3.4670631584445978e+01  6.2115468052943982e+01  1.4863014442015483e+02  1.4653728289237506e+02  1.5075984229761448e+02  8.8714870325794791e+01  8.7944088893891958e+01  1.4213156411978864e+02  4.9261948856146766e+01  7.5231716088157427e+01  7.3652269322321786e+01  3.7546988216329879e+01  5.0797119613428045e+01  4.5503646823684079e+01  9.7755363712847185e+01  3.8354582368449108e+01  2.7071917354587718e+01  3.4912831645208314e+01  3.3905406221587747e+01  6.9874928220699772e+01  4.4786005152146956e+01  4.0413824526792304e+01  8.0047542875877809e+01  7.9543993894483322e+01  3.8568475809112805e+01  3.9466243950028627e+01  1.0279565942804282e+02  1.0512850119905765e+02  5.0647145920385888e+01  2.9903442634243191e+01  4.5244941043417725e+01  5.9575263709419112e+01  1.1086476386101531e+02  6.2961564148183484e+01  1.2701600079302648e+02  6.8648994059244743e+01  7.1201097964450554e+01  7.3809654617908208e+01  1.1332914439306312e+02  1.1893479698029331e+02  7.2544302448670692e+01  4.2639061763056887e+01  4.3469342350301268e+01  1.1432431748692466e+02  7.5138982367481802e+01  1.1027658381117284e+02  1.2620741881054361e+02  7.0429306933636141e+01  7.8036101708985001e+01  4.5207451306597648e+01  3.6526932922221270e+01  3.6623219467133154e+01  9.5475481363264194e+01  9.4651156534679771e+01  1.3524755278982568e+02  3.5213825120352112e+01  3.4768433952238340e+01  3.3534379785132643e+01  9.4610562526765179e+01  3.7673121833286295e+01  4.6911466791476997e+01  9.3760677397669269e+01  4.9841275953280281e+01  5.1698654006398364e+01  4.6458345599247778e+01  8.2608407318349535e+01  8.0876112547312630e+01  4.9843423448779944e+01  5.6063782288189550e+01  2.7809545668854785e+01  1.4106767915936831e+02  4.0961255832156162e+01  7.3904468745304186e+01  2.9582453306660401e+01  2.8777016556537621e+01  4.2848753721471162e+01  4.0921218219717744e+01  3.9186930319412390e+01  7.3402433575720863e+01  1.0145163038746482e+02  1.0369341757146807e+02  3.9688023517874115e+01  4.0289809400242760e+01  5.8016520398710959e+01  6.9602832452057328e+01  7.8879657291788774e+01  6.4540065754618965e+01  3.7644525270643065e+01  3.4514973724502816e+01  3.5944381852420712e+01  7.3784057631497902e+01  7.2877011127542147e+01  2.5955075568402229e+01  3.2622160326643737e+01  1.5887344264810119e+02  7.2224186965172066e+01  8.2333729583651419e+01  6.3330157167478703e+01  1.0275900734818629e+02  5.2307591066670540e+01  3.7131342146217158e+01  3.8806318208095824e+01  7.9182964779086731e+01  8.0473098694445952e+01  1.1028035420338071e+02  4.2676556581885855e+01  3.0080904656392345e+01  2.9616890367484075e+01  2.8891442670746272e+01  3.0107377308644445e+01  4.0436678509903331e+01  1.0353540821280903e+02  8.2410668039478551e+01  4.4909711223150545e+01  4.4725366250839649e+01  4.5468033986278840e+01  3.9559541323459513e+01  3.5138693647650548e+01  9.0179677973342635e+01  8.9043721733373090e+01  1.3371695701685690e+02  1.0873980118924219e+02  5.7145385149587788e+01  1.4041929167213317e+02  7.5664676935735528e+01  6.2626717449350558e+01  4.1214927143267651e+01  1.4666739521434289e+02  8.5638649105932402e+01  3.2538574827352328e+01  3.2712733858554380e+01  2.7643192801775506e+01  7.4554301878924633e+01  1.2798604897817384e+02  6.7469495909126294e+01  7.3834523574325729e+01  7.4284902594745290e+01  7.4129144280986679e+01  1.0052207047111823e+02  3.8046263271660813e+01  1.5104915937798236e+02  2.8594426199371021e+01  1.0927387965766926e+02  5.7145257155784073e+01  7.3814800174043413e+01  3.5113826590258164e+01  3.3304098076336082e+01  5.1068318463144529e+01  1.0813960890805328e+02  4.2301840359913058e+01  1.2213634477743601e+02  3.9641067118600418e+01  2.7767090735563595e+01  7.4832504523999106e+01  5.6836347785058578e+01  1.0634150773469806e+02  3.7030799744464851e+01  7.9891484710280665e+01  3.2763287047908506e+01  7.2286600287245975e+01  1.5850145214989817e+02  2.6007091459837461e+01  7.0873823485928071e+01  4.2882218549381271e+01  2.9179397155491973e+01  3.9640710170340249e+01  7.4854577010081982e+01  5.5655423030179826e+01  3.6863929728238304e+01  4.0871513737667598e+01  1.4332855438348659e+02  7.6603161413764212e+01  7.4360890898338582e+01  7.4028467226540727e+01  4.1845369783813517e+01  6.0044746359585389e+01  6.3733241584608692e+01  7.4417231050570464e+01  3.6256147093775667e+01  7.4049800811678082e+01  4.0976637481628060e+01  7.6365956646317670e+01  1.1780369775229175e+02  8.1957688637001027e+01  3.1697103281933231e+01  1.2071764497428902e+02  4.7085223387762497e+01  3.1198987685006884e+01  3.2948950695433332e+01  3.2677099006262061e+01  4.6931283467840217e+01  4.5785988411150150e+01  2.8007107037289018e+01  7.8362985690700214e+01  1.2678010982212272e+02  6.6754324532675994e+01  4.6808221182725539e+01  3.4674879395170009e+01  8.0696618537809229e+01  7.3853136791562406e+01  2.7429655193584573e+01  1.1545532128276760e+02  7.3418938475692684e+01  7.9537883880379624e+01  4.4973128292377751e+01  8.0029954885520439e+01  7.7010319298292842e+01  1.3220851948546053e+02  3.5611103626204589e+01  7.3533126344079307e+01  7.4256077604356591e+01  3.6172451998033949e+01  3.5622482730413779e+01  3.5597195237212695e+01  2.7679842756931613e+01  1.4908442451730602e+02  6.3302078788317480e+01  1.1666670026822894e+02  4.5040400246945246e+01  7.8882867719565297e+01  7.1711035350403606e+01  6.0447555412461902e+01  8.7064807362015358e+01  1.1148998582173337e+02  1.2006277736872899e+02  3.8655638106906345e+01  7.2927104544429881e+01  3.4032374935455927e+01  3.0482991095875416e+01  7.7357564212534086e+01  5.1774982452855014e+01  1.3884270411141051e+02  3.7615295675501592e+01  1.3433657299389174e+02  1.3731922234150252e+02  2.8289446838321034e+01  2.7972883742486200e+01  1.4522935790416227e+02  1.4546743897877559e+02  9.8822175143749433e+01  5.2334869980373739e+01  4.1128609399507141e+01  4.1732944264578741e+01  5.2266794435530436e+01  4.8220034262122304e+01  4.5783119531579899e+01  2.7198531226086825e+01  4.4355526217550413e+01  5.6817129404842404e+01  1.1191980784947218e+02  1.0326253797624561e+02  4.1636235702856226e+01  3.8673468670255581e+01  4.4553411701074673e+01  5.0792404072609834e+01  3.3936733112237448e+01  1.0999681849239825e+02  8.2311557719792162e+01  7.3691306009472839e+01  8.0393145355983094e+01  7.9547101589532531e+01  1.1584026699656876e+02  2.6727659577878903e+01  1.5350637545869017e+02  1.5241679798644319e+02  1.5253708930384263e+02  2.6967567817172700e+01  2.6602082349368708e+01  3.0490567540528225e+01  7.2212832193148259e+01  3.1686327049556070e+01  8.6552103968867485e+01  3.3723838146997963e+01  3.4627911749615116e+01  3.4264888438812100e+01  7.3335177935780223e+01  7.3064801412574084e+01  7.3209056709162894e+01  4.4746420215820599e+01  1.5444069967200986e+02  7.2931471520266129e+01  3.3781705029682982e+01  2.8556185697936204e+01  7.5368107178703355e+01  4.7341221207333049e+01  7.0835261963859480e+01  1.1477880194040623e+02  7.8376671819687800e+01  3.5918645694727537e+01  7.4345522443812825e+01  3.5824486788880655e+01  3.2137875733248087e+01  3.2408010361155718e+01  3.1026961872498156e+01  1.2547179903478705e+02  4.6467605873281911e+01  1.4421664686974785e+02  3.1426647206745056e+01  7.3606289725262855e+01  3.6644532938376294e+01  8.2489342564645682e+01  7.5380671388864698e+01  2.6838933995208698e+01  4.8688655511197531e+01  1.4394705967074324e+02  3.3677764217583494e+01  3.2649591408934363e+01  3.8231899130722255e+01  1.0451930845829398e+02  6.8004105398929070e+01  3.7584431723048638e+01  4.8337000729142879e+01  4.3552092785023021e+01  4.3038069138326577e+01  1.2757553003973322e+02  9.9266161870939072e+01  6.3930026825009229e+01  4.5289262870210017e+01  3.9690517774226919e+01  4.3891567972817661e+01  4.6417399274108355e+01  4.5896036688451353e+01  7.2892396852036825e+01  7.5803816052941613e+01  6.5797225689524240e+01  3.5923091885396843e+01  7.4323199277599016e+01  3.7239767738425236e+01  1.1615685667630601e+02  7.5507137769366295e+01  8.1331270292489464e+01  8.1144501802854478e+01  8.4318859129752113e+01  4.1002169334614834e+01  5.5015433160807362e+01  3.4707483260440611e+01  3.5152879747184897e+01  3.4295929946829034e+01  5.0170451453370660e+01  2.7993036427670027e+01  3.5637381172739651e+01  5.4464963675032251e+01  1.4447461242979998e+02  1.4748110369501072e+02  1.3337726967246741e+02  5.2562909204726751e+01  6.8791525626696369e+01  6.6310004903248810e+01  4.1047580597894346e+01  4.1086317414354035e+01  1.2956434683020521e+02  1.0537301907442155e+02  2.8139024464165360e+01  8.5947918136750474e+01  9.0278503218290609e+01  3.9480468664540744e+01  1.2525368437758874e+02  3.7300839455369513e+01  9.1182707630848071e+01  3.6573860360685131e+01  9.1732698304119609e+01  5.3828244306659620e+01  5.5513956478061424e+01  4.2504361586987756e+01  1.0764325987023928e+02  4.2101032270668270e+01  3.6480250357496857e+01  4.4768402658516280e+01  4.3139945993874157e+01  1.0881431321316731e+02  4.6511843262965257e+01  5.3241769578424211e+01  9.4016030429726982e+01  5.4151362963594330e+01  3.6628117473695625e+01  9.1023631376012091e+01  2.6598033002778287e+01  1.5399278849609328e+02  8.39