<?xml version="1.0"?>
<VTKFile type="UnstructuredGrid"  version="0.1"  >
<UnstructuredGrid>
<Piece  NumberOfPoints="2331" NumberOfCells="4248">
<Points>
<DataArray  type="Float64"  NumberOfComponents="3"  format="ascii">0 0.3 0  0 0 0  0.04999999999999999 0 0  0.0514582251803892 0.02410733605106462 0  0.0558116365147896 0.04786313285751154 0  0.06299675146291706 0.07092097740850717 0  0.07290879486935808 0.09294463440875382 0  0.08540322682126872 0.1136129493462312 0  0.1002978503657798 0.132624531648159 0  0.117375468351841 0.1497021496342203 0  0.1363870506537689 0.1645967731787313 0  0.1570553655912463 0.177091205130642 0  0.1790790225914929 0.187003248537083 0  0.2021368671424885 0.1941883634852104 0  0.2258926639489354 0.1985417748196108 0  0.25 0.2 0  0.2741073360510646 0.1985417748196108 0  0.2978631328575116 0.1941883634852104 0  0.3209209774085071 0.187003248537083 0  0.3429446344087537 0.177091205130642 0  0.3636129493462312 0.1645967731787313 0  0.3826245316481591 0.1497021496342202 0  0.3997021496342202 0.132624531648159 0  0.4145967731787313 0.1136129493462312 0  0.427091205130642 0.09294463440875371 0  0.4370032485370829 0.07092097740850713 0  0.4441883634852104 0.04786313285751155 0  0.4485417748196108 0.02410733605106461 0  0.45 0 0  0.55 0 0  0.5514582251803892 0.02410733605106462 0  0.5558116365147896 0.04786313285751154 0  0.5629967514629171 0.07092097740850717 0  0.5729087948693581 0.09294463440875382 0  0.5854032268212688 0.1136129493462312 0  0.6002978503657798 0.132624531648159 0  0.617375468351841 0.1497021496342203 0  0.6363870506537689 0.1645967731787313 0  0.6570553655912463 0.177091205130642 0  0.6790790225914929 0.187003248537083 0  0.7021368671424885 0.1941883634852104 0  0.7258926639489354 0.1985417748196108 0  0.75 0.2 0  0.7741073360510646 0.1985417748196108 0  0.7978631328575116 0.1941883634852104 0  0.8209209774085071 0.187003248537083 0  0.8429446344087537 0.177091205130642 0  0.8636129493462312 0.1645967731787313 0  0.8826245316481591 0.1497021496342202 0  0.8997021496342202 0.132624531648159 0  0.9145967731787312 0.1136129493462312 0  0.927091205130642 0.09294463440875371 0  0.9370032485370829 0.07092097740850713 0  0.9441883634852104 0.04786313285751155 0  0.9485417748196108 0.02410733605106461 0  0.95 0 0  1 0 0  1 0.3 0  0.9758926639489353 0.3014582251803892 0  0.9521368671424885 0.3058116365147896 0  0.9290790225914928 0.3129967514629171 0  0.9070553655912461 0.3229087948693581 0  0.8863870506537688 0.3354032268212687 0  0.867375468351841 0.3502978503657798 0  0.8502978503657798 0.367375468351841 0  0.8354032268212687 0.3863870506537689 0  0.822908794869358 0.4070553655912464 0  0.8129967514629171 0.4290790225914929 0  0.8058116365147896 0.4521368671424885 0  0.8014582251803892 0.4758926639489354 0  0.8 0.4999999999999999 0  0.8014582251803892 0.5241073360510646 0  0.8058116365147896 0.5478631328575115 0  0.8129967514629171 0.5709209774085071 0  0.8229087948693581 0.5929446344087538 0  0.8354032268212688 0.6136129493462312 0  0.8502978503657798 0.632624531648159 0  0.867375468351841 0.6497021496342202 0  0.8863870506537689 0.6645967731787313 0  0.9070553655912463 0.677091205130642 0  0.9290790225914929 0.6870032485370829 0  0.9521368671424885 0.6941883634852104 0  0.9758926639489354 0.6985417748196108 0  1 0.7 0  1 1 0  0.95 1 0  0.9485417748196108 0.9758926639489353 0  0.9441883634852104 0.9521368671424885 0  0.9370032485370829 0.9290790225914928 0  0.927091205130642 0.9070553655912463 0  0.9145967731787312 0.8863870506537688 0  0.8997021496342201 0.8673754683518409 0  0.882624531648159 0.8502978503657798 0  0.863612949346231 0.8354032268212686 0  0.8429446344087537 0.822908794869358 0  0.8209209774085071 0.8129967514629171 0  0.7978631328575114 0.8058116365147896 0  0.7741073360510646 0.8014582251803892 0  0.75 0.8 0  0.7258926639489353 0.8014582251803892 0  0.7021368671424885 0.8058116365147896 0  0.6790790225914928 0.8129967514629171 0  0.6570553655912461 0.8229087948693581 0  0.6363870506537688 0.8354032268212688 0  0.617375468351841 0.8502978503657798 0  0.6002978503657798 0.867375468351841 0  0.5854032268212687 0.8863870506537689 0  0.572908794869358 0.9070553655912463 0  0.5629967514629171 0.9290790225914929 0  0.5558116365147896 0.9521368671424885 0  0.5514582251803892 0.9758926639489355 0  0.55 0.9999999999999999 0  0.45 0.9999999999999999 0  0.4485417748196108 0.9758926639489353 0  0.4441883634852104 0.9521368671424885 0  0.4370032485370829 0.9290790225914928 0  0.427091205130642 0.9070553655912463 0  0.4145967731787313 0.8863870506537688 0  0.3997021496342201 0.8673754683518409 0  0.382624531648159 0.8502978503657798 0  0.363612949346231 0.8354032268212686 0  0.3429446344087536 0.822908794869358 0  0.3209209774085071 0.8129967514629171 0  0.2978631328575115 0.8058116365147896 0  0.2741073360510646 0.8014582251803892 0  0.25 0.8 0  0.2258926639489353 0.8014582251803892 0  0.2021368671424885 0.8058116365147896 0  0.1790790225914928 0.8129967514629171 0  0.1570553655912462 0.8229087948693581 0  0.1363870506537688 0.8354032268212688 0  0.117375468351841 0.8502978503657798 0  0.1002978503657797 0.867375468351841 0  0.08540322682126869 0.8863870506537689 0  0.07290879486935797 0.9070553655912463 0  0.06299675146291703 0.9290790225914929 0  0.05581163651478957 0.9521368671424885 0  0.0514582251803892 0.9758926639489355 0  0.04999999999999999 0.9999999999999999 0  0 1 0  -0 0.7000000000000001 0  0.0241073360510646 0.6985417748196108 0  0.04786313285751161 0.6941883634852104 0  0.07092097740850711 0.6870032485370829 0  0.09294463440875372 0.677091205130642 0  0.1136129493462312 0.6645967731787312 0  0.1326245316481591 0.6497021496342202 0  0.1497021496342202 0.632624531648159 0  0.1645967731787313 0.6136129493462312 0  0.177091205130642 0.5929446344087537 0  0.187003248537083 0.5709209774085071 0  0.1941883634852104 0.5478631328575115 0  0.1985417748196108 0.5241073360510646 0  0.2 0.5 0  0.1985417748196108 0.4758926639489353 0  0.1941883634852104 0.4521368671424885 0  0.1870032485370829 0.4290790225914928 0  0.177091205130642 0.4070553655912463 0  0.1645967731787313 0.3863870506537688 0  0.1497021496342202 0.3673754683518409 0  0.132624531648159 0.3502978503657798 0  0.113612949346231 0.3354032268212686 0  0.09294463440875361 0.322908794869358 0  0.07092097740850711 0.3129967514629171 0  0.04786313285751148 0.3058116365147896 0  0.02410733605106464 0.3014582251803892 0  0.6985417748196108 0.5241073360510646 0  0.7 0.5 0  0.6985417748196108 0.4758926639489353 0  0.6941883634852104 0.4521368671424885 0  0.6870032485370829 0.4290790225914928 0  0.677091205130642 0.4070553655912463 0  0.6645967731787312 0.3863870506537688 0  0.6497021496342201 0.3673754683518409 0  0.632624531648159 0.3502978503657798 0  0.613612949346231 0.3354032268212686 0  0.5929446344087537 0.322908794869358 0  0.5709209774085071 0.3129967514629171 0  0.5478631328575114 0.3058116365147896 0  0.5241073360510646 0.3014582251803892 0  0.4999999999999999 0.3 0  0.4758926639489353 0.3014582251803892 0  0.4521368671424885 0.3058116365147896 0  0.4290790225914928 0.3129967514629171 0  0.4070553655912462 0.3229087948693581 0  0.3863870506537688 0.3354032268212687 0  0.367375468351841 0.3502978503657798 0  0.3502978503657798 0.367375468351841 0  0.3354032268212687 0.3863870506537689 0  0.322908794869358 0.4070553655912464 0  0.3129967514629171 0.4290790225914929 0  0.3058116365147896 0.4521368671424885 0  0.3014582251803892 0.4758926639489354 0  0.3 0.4999999999999999 0  0.3014582251803892 0.5241073360510646 0  0.3058116365147896 0.5478631328575115 0  0.3129967514629171 0.5709209774085071 0  0.3229087948693581 0.5929446344087538 0  0.3354032268212687 0.6136129493462312 0  0.3502978503657798 0.632624531648159 0  0.367375468351841 0.6497021496342202 0  0.3863870506537689 0.6645967731787313 0  0.4070553655912463 0.677091205130642 0  0.4290790225914929 0.6870032485370829 0  0.4521368671424885 0.6941883634852104 0  0.4758926639489354 0.6985417748196108 0  0.4999999999999999 0.7 0  0.5241073360510646 0.6985417748196108 0  0.5478631328575116 0.6941883634852104 0  0.5709209774085071 0.6870032485370829 0  0.5929446344087537 0.677091205130642 0  0.6136129493462312 0.6645967731787312 0  0.6326245316481591 0.6497021496342202 0  0.6497021496342202 0.632624531648159 0  0.6645967731787312 0.6136129493462312 0  0.677091205130642 0.5929446344087537 0  0.6870032485370829 0.5709209774085071 0  0.6941883634852104 0.5478631328575115 0  0 0.15 0  1 0.15 0  1 0.85 0  0 0.8500000000000001 0  0 0.075 0  1 0.075 0  1 0.925 0  0 0.925 0  0.5 0.8127595604293815 0  0.5069440078039168 0.190422209288238 0  0.25 0.3127595604293815 0  0.756944007803917 0.3095777907117619 0  0.756944007803917 0.6904222092882382 0  0.25 0.6872404395706185 0  0 0.225 0  0.4255768646051012 0.2241073097134061 0  1 0.7749999999999999 0  0.6773391559270888 0.2766774022734219 0  1 0.225 0  0.6755768646051011 0.7241073097134062 0  0 0.7750000000000001 0  0.5818971135297744 0.2287925518358889 0  0.8318971135297746 0.728792551835889 0  0.1659156081861886 0.7301636995921477 0  0.08376842746533225 0.2299656297760495 0  0.4236002201977974 0.7746535834185855 0  0.0840843918138115 0.7698363004078523 0  0.3340843918138113 0.7301636995921477 0  0.3340843918138114 0.2698363004078523 0  0.9159156081861887 0.2301636995921477 0  0.5840843918138116 0.7698363004078522 0  0.1659156081861887 0.2698363004078523 0  0.9162315725346678 0.7700343702239506 0  0.8340843918138114 0.2698363004078523 0  0.75 0.6146645247768686 0  0.5 0.1125158665330878 0  0.75 0.3874841334669124 0  0.2504983345544904 0.6122915843562002 0  0.2504983345544902 0.3877084156437999 0  0.5 0.8879783056303169 0  0.7005361650220154 0.3333055947145943 0  0.70416808765371 0.6599554817221275 0  0.449930214263529 0.1678187287522426 0  0.2247310981387008 0.7415600637745463 0  0.5155081196221678 0.7563797802146907 0  0.2752689018612993 0.2584399362254537 0  0.05605196690611226 0.8246131191226815 0  0.943948033093887
[...]
<PointData  Scalars="Temperature"> 
<DataArray  type="Float64"  Name="Temperature"  format="ascii">7.9271895627276308e+01  8.0685847636031113e+01  8.0683515886086212e+01  8.0651372844712881e+01  8.0561476648347309e+01  8.0421631623609755e+01  8.0234481649152869e+01  8.0001852701880679e+01  7.9725872501233880e+01  7.9402374318554735e+01  7.9022139641895663e+01  7.8589344569979119e+01  7.8116403562909611e+01  7.7613555378729245e+01  7.7090695405543570e+01  7.6560653376964751e+01  7.6024365321967522e+01  7.5479255013534768e+01  7.4935610602416915e+01  7.4390440450003382e+01  7.3870792768877649e+01  7.3395290998222137e+01  7.2983992479997696e+01  7.2664662170646579e+01  7.2435162519739137e+01  7.2292475946848953e+01  7.2213355349887095e+01  7.2180073086361588e+01  7.2171593621266055e+01  7.2071434399277749e+01  7.2044215496230308e+01  7.1959241882913346e+01  7.1798887555562530e+01  7.1548141604215687e+01  7.1184015740742325e+01  7.0704851655131876e+01  7.0118807685979007e+01  6.9445438084702175e+01  6.8714849222991049e+01  6.7969201289810442e+01  6.7250623011714282e+01  6.6594025377594875e+01  6.6019937853553117e+01  6.5534253497304377e+01  6.5132050629673273e+01  6.4807762920234524e+01  6.4542563823675167e+01  6.4327618825036012e+01  6.4154305040502337e+01  6.4012191372547804e+01  6.3896523651611346e+01  6.3801393516469716e+01  6.3725866063118076e+01  6.3669696405461742e+01  6.3633610533233245e+01  6.3620730190657063e+01  6.3619681414342679e+01  6.4128531926359059e+01  6.4148364363140246e+01  6.4204729920909458e+01  6.4288315795141813e+01  6.4381518594080021e+01  6.4460854829359619e+01  6.4495565765213499e+01  6.4454921988737624e+01  6.4314694563405752e+01  6.4064356894245961e+01  6.3683785390698432e+01  6.3198940395174915e+01  6.2634510937039096e+01  6.2029686749680913e+01  6.1427241625192110e+01  6.0860840224512458e+01  6.0335217256484462e+01  5.9855438305374051e+01  5.9402085596761253e+01  5.8968565529868172e+01  5.8557752969106744e+01  5.8165267913172116e+01  5.7810782591513828e+01  5.7508565089522087e+01  5.7278764015765418e+01  5.7136654230553411e+01  5.7086761162301016e+01  5.5994195645839376e+01  5.5995872134965367e+01  5.6020535928940930e+01  5.6089714562341655e+01  5.6197387256534974e+01  5.6341962525742218e+01  5.6521677556649713e+01  5.6736660476052229e+01  5.6990025844565956e+01  5.7283449622748947e+01  5.7620195324530371e+01  5.7994704893146704e+01  5.8393626561984497e+01  5.8813875493892930e+01  5.9238222190280922e+01  5.9676346294604251e+01  6.0122809623383162e+01  6.0576002316219828e+01  6.1027374015883012e+01  6.1466106361714623e+01  6.1861379536521646e+01  6.2206883724980344e+01  6.2471939141059494e+01  6.2664164749000321e+01  6.2780329548334279e+01  6.2840297355341498e+01  6.2866458312118048e+01  6.2872598864827452e+01  6.2959031012355624e+01  6.2985752076846317e+01  6.3064610037711077e+01  6.3207756281443316e+01  6.3432504162965820e+01  6.3760387455755193e+01  6.4187815154718820e+01  6.4713811403126314e+01  6.5312280083575274e+01  6.5963741121036804e+01  6.6622189663391808e+01  6.7247548527840209e+01  6.7815253016998767e+01  6.8292665087176431e+01  6.8681827788730530e+01  6.8981594960878340e+01  6.9208327149599697e+01  6.9376747561339087e+01  6.9502621557818770e+01  6.9597869707301641e+01  6.9670657694533588e+01  6.9726715280654247e+01  6.9771485458317372e+01  6.9805887106635538e+01  6.9831478244222964e+01  6.9847090282210814e+01  6.9852971760530977e+01  6.9853158808510827e+01  6.9657047820506364e+01  6.9649975995145411e+01  6.9631586618363912e+01  6.9609410528598445e+01  6.9596269207170224e+01  6.9611797357855266e+01  6.9680610457380155e+01  6.9828456364772279e+01  7.0082204396631866e+01  7.0453663242029791e+01  7.0954151394712241e+01  7.1569853719353134e+01  7.2276751265445228e+01  7.3025728595809753e+01  7.3774203031785632e+01  7.4484754139157332e+01  7.5141316310003575e+01  7.5746403879712958e+01  7.6319521174185397e+01  7.6868363547206641e+01  7.7396082669031699e+01  7.7891117810679944e+01  7.8342908313867525e+01  7.8729992640353487e+01  7.9021162775808506e+01  7.9206905107907346e+01  6.1509569505126514e+01  6.2096173994366175e+01  6.2730700691474183e+01  6.3384941133447946e+01  6.4043036571349319e+01  6.4705876195690706e+01  6.5388546846928591e+01  6.6106932593285777e+01  6.6873981011382185e+01  6.7672194221381361e+01  6.8493906258002681e+01  6.9326813558751397e+01  7.0140769405138371e+01  7.0926775848291427e+01  7.1677013636383734e+01  7.2386500934250677e+01  7.3047503595604454e+01  7.3658593933953810e+01  7.4202386257511094e+01  7.4662615949703095e+01  7.5000702061953589e+01  7.5202023596323286e+01  7.5238628630391730e+01  7.5102043603354375e+01  7.4781786631317146e+01  7.4301123165753708e+01  7.3681201107079730e+01  7.2960709717059913e+01  7.2192983629063121e+01  7.1419164599996378e+01  7.0667494663761559e+01  6.9924224966166719e+01  6.9200043495860669e+01  6.8474887309783469e+01  6.7733226115442648e+01  6.6981010215837856e+01  6.6212491365528336e+01  6.5460412351974938e+01  6.4724331522750916e+01  6.4028282804187867e+01  6.3368266424787720e+01  6.2750208855502237e+01  6.2173328134851936e+01  6.1650789094344319e+01  6.1182695915001887e+01  6.0791209257440357e+01  6.0498826021222065e+01  6.0319871817047947e+01  6.0276817938387055e+01  6.0379244292422968e+01  6.0628606341409338e+01  6.1013040152755856e+01  8.0002891423288958e+01  6.3885460181336583e+01  5.6518956756980671e+01  6.9737544464805751e+01  8.0476684063001130e+01  6.3703160754862196e+01  5.6154986752125900e+01  6.9816522799280690e+01  6.3201527152396004e+01  7.1709638989887168e+01  7.6220636164752236e+01  6.5337075288843067e+01  5.9407226667644203e+01  6.9009627967949868e+01  7.9521873886410532e+01  7.3247201166236479e+01  5.6890691749974607e+01  6.7061680279449178e+01  6.4052067140356797e+01  6.0292820649021692e+01  6.9676353502961206e+01  6.9892939235203073e+01  5.8314598225421818e+01  6.9337002384934124e+01  7.9091234954431613e+01  6.4785784477559005e+01  6.9588393486940049e+01  6.7175474855503396e+01  7.5094167239866820e+01  6.4231504979578162e+01  6.1819607368092747e+01  7.7750207859415539e+01  5.7227057298023880e+01  6.4758182927041588e+01  6.0057935449461169e+01  7.1992668014256097e+01  6.4395002205779548e+01  7.0172765511282293e+01  7.5455804816375078e+01  6.3044515622535933e+01  6.5837639594293492e+01  6.0017818476833767e+01  7.2618248979235702e+01  6.8820714150446818e+01  6.2999888009027870e+01  7.6048596023326539e+01  6.9677615272270373e+01  6.4014782902747598e+01  7.9682903974750545e+01  5.6790921227123327e+01  7.2089113354877341e+01  5.9561527989196158e+01  6.6118795100322089e+01  6.3967496966654600e+01  6.9524784319006784e+01  7.6883630050649444e+01  6.8390231826143250e+01  7.5486525883735666e+01  6.2390928472759185e+01  7.2086599422068559e+01  6.3319311476811770e+01  6.1095091858889504e+01  7.4425878653346743e+01  7.1730779131493449e+01  6.2914896380804983e+01  6.2952277419381254e+01  7.6922241332910545e+01  6.8133360680459802e+01  7.0812896379549997e+01  5.9369116959738015e+01  6.4730021283927300e+01  6.8459156739467076e+01  7.4126986585390455e+01  7.4419515848188126e+01  6.0943856131531490e+01  6.1189593360928271e+01  6.8189023827682831e+01  5.8906435557958744e+01  6.5318235523367449e+01  6.2192027723418917e+01  7.2122126779175929e+01  7.3149557290056975e+01  6.5962956316968018e+01  6.6125099060675439e+01  7.1015167257874651e+01  5.7698605765559684e+01  5.7756144500470867e+01  6.3825167763081261e+01  7.8594364406362047e+01  6.9646454988040318e+01  6.4363336010508746e+01  6.9419552665754807e+01  7.8345399818939597e+01  6.9535117825688388e+01  6.4136814489113632e+01  6.4518404122617582e+01  5.7118825602288624e+01  7.9227168897893648e+01  6.3866553045095245e+01  5.6444109436557248e+01  8.0102352338065003e+01  6.9743340888477675e+01  6.4478790712295421e+01  5.8888272970776235e+01  7.1460548043434599e+01  5.9829002037837292e+01  6.1757444685422307e+01  6.7402631902371596e+01  7.7635292191155955e+01  6.4196664964041020e+01  7.4968899198634574e+01  6.9544551803717425e+01  6.9583840006759743e+01  7.9268289965930236e+01  5.7128320060393733e+01  6.9975437205107767e+01  7.6119018646519734e+01  6.2860520749586797e+01  5.8450443082888491e+01  7.5701782997171208e+01  6.9298459151545330e+01  6.7082368139246725e+01  6.7022085877446301e+01  6.4933646040511348e+01  7.3001870929425209e+01  6.0532302505138695e+01  7.3523847924714502e+01  6.0277957391059019e+01  6.3484021819543813e+01  6.4545702376695829e+01  6.9757837355973024e+01  6.6103185921184092e+01  5.8378050217098483e+01  6.9495550689250436e+01  6.9086608687057918e+01  7.5211919163598111e+01  6.7319471721471032e+01  7.7592949822542423e+01  6.4573934977016023e+01  6.1910664154344225e+01  7.2407614182412104e+01  7.9481342034497274e+01  6.4890206113930205e+01  6.4085616487973866e+01  6.9656167994224376e+01  6.2674175792104030e+01  6.9702264477606718e+01  6.3976219586789846e+01  6.5033967076824666e+01  5.6704844834587703e+01  7.2385583166995517e+01  6.5098397995111668e+01  6.4975921193249832e+01  7.2063902219690917e+01  7.9751625206302123e+01  6.0414648318108789e+01  6.0373841837399894e+01  5.9669006928604695e+01  7.0927010949961527e+01  7.5406784543855210e+01  6.9551212331922741e+01  7.5324512512007232e+01  6.9605580040373098e+01  7.2194610640889167e+01  7.1886975975042148e+01  6.3821575861620573e+01  6.4128053407518138e+01  6.2666667674637822e+01  6.2864313914907548e+01  6.3190136833227278e+01  5.6714934596159779e+01  6.9662045293892106e+01  5.6325885891334650e+01  6.4104333230340529e+01  7.9345519670612859e+01  6.3641845680292434e+01  8.0630641677875218e+01  6.3789666167645969e+01  6.3757811235284485e+01  8.0255219173191335e+01  5.6036496910942610e+01  6.9843392860898291e+01  5.7027561359188738e+01  6.9778685929314804e+01  6.9791523213594829e+01  7.4918812869184677e+01  7.0788352581949951e+01  6.9145816516893490e+01  7.5633769335252623e+01  6.3410234834095633e+01  5.7408921721783670e+01  6.8140112698346698e+01  7.6799550949433808e+01  5.9107133467800445e+01  5.9819371233903134e+01  6.3686477552623806e+01  5.6938762916718936e+01  6.2350795012934348e+01  7.1314820556008172e+01  6.9556688437198545e+01  7.6079676891149489e+01  7.8335902909640765e+01  6.9082864394756598e+01  7.1440629831062651e+01  6.5520058475975873e+01  6.4881088403596408e+01  6.2568258584049985e+01  6.0174119269342384e+01  6.0292953400280204e+01  5.6253643863677205e+01  8.0348321283246477e+01  7.8846396724846770e+01  5.8933035875217882e+01  6.8456278044065954e+01  7.6747915684418757e+01  6.4521753844368291e+01  7.0667942553531873e+01  6.0069011311310994e+01  6.4231706937515327e+01  6.5703771475700478e+01  7.3819972003334897e+01  6.0710139253685988e+01  6.5277941790862926e+01  8.0554927650373003e+01  6.3686273100657218e+01  5.6095181838609932e+01  6.9829725849017478e+01  6.5616011677970761e+01  6.0791570798802603e+01  7.2699281994258371e+01  6.9693474108141089e+01  6.9712042340047390e+01  6.3969797911373924e+01  6.3945386685225721e+01  6.6553089371118716e+01  7.9619204468921779e+01  7.9398758062970714e+01  7.9844967274740426e+01  7.3044494554229274e+01  7.2897305874503047e+01  7.8922979504307818e+01  6.3733236618421650e+01  6.9568893984720987e+01  6.9461045604693467e+01  6.4390145991789154e+01  6.6507641787219555e+01  6.5714764872716870e+01  7.4088122997382243e+01  6.0938991730719984e+01  5.6604200083202514e+01  6.0198349188892060e+01  5.9743158449771435e+01  7.0226521599593013e+01  6.2881921402576126e+01  6.4556708735293952e+01  7.2148630247408093e+01  7.2076523025141540e+01  6.2748420198924784e+01  6.3063569663780818e+01  7.3801888406898811e+01  7.4147721144179997e+01  6.6592293210789876e+01  5.8044514566328097e+01  6.2992895011170546e+01  6.8335924451261050e+01  7.5535329842747757e+01  6.6649132641422796e+01  7.7247764575359184e+01  6.7865747938019027e+01  6.8593912385653951e+01  6.9145723506120987e+01  7.5819876056634357e+01  7.6386881002616562e+01  6.8765471113175593e+01  6.2092103671029719e+01  6.2381535871907893e+01  7.5825246168863202e+01  6.9401439089526576e+01  7.5333928477853362e+01  7.7103738004686477e+01  6.8155367464344323e+01  6.9812355442429777e+01  6.2783724975621588e+01  6.1634110646848718e+01  6.1727466140324303e+01  7.2581650368798051e+01  7.2445130925457818e+01  7.8156992655265668e+01  5.9982018009069598e+01  5.9796419968403775e+01  5.9489522497801765e+01  7.3643895202525727e+01  6.0690227332117402e+01  6.3148339842237462e+01  7.3562734569940645e+01  6.3922651831702652e+01  6.4280444712700216e+01  6.5608410521289898e+01  7.2046944319534646e+01  7.1888776543452849e+01  6.6508806298581035e+01  6.7640470309622842e+01  5.6989531793477141e+01  7.8814631206242879e+01  6.4477729912240633e+01  7.0962317693959719e+01  5.7805904850665037e+01  5.7439269518969780e+01  6.4996037831989256e+01  6.4762820252834359e+01  6.4648675140341055e+01  6.9260159929660617e+01  7.4453226715576406e+01  7.4720777178651858e+01  6.1279556133826219e+01  6.1444082679690794e+01  6.5604009642921895e+01  7.0140517630717653e+01  7.1777683267150749e+01  6.9214180102439713e+01  6.4378012112816705e+01  6.0446586195066232e+01  6.4136866992463439e+01  6.9631525360806776e+01  7.0580922701479352e+01  5.5995044184331086e+01  6.3620173950260906e+01  8.0684867019017190e+01  6.9853130065807434e+01  7.2176319767553110e+01  6.8911545249229519e+01  7.4633048721226970e+01  6.4448788455243090e+01  6.0554344961094408e+01  6.4489171512114055e+01  7.1989905449042652e+01  7.2177267741896785e+01  7.5006496988727591e+01  6.5222200040540358e+01  5.8105944556407849e+01  5.7863894277925127e+01  5.7522545415963634e+01  5.8065239979092539e+01  6.1474253788841985e+01  7.4741957707789538e+01  7.0455113660317267e+01  6.2922309852426167e+01  6.2885447833290812e+01  6.3000574085696996e+01  6.1238772504448036e+01  6.0896109494101587e+01  7.1710817516336959e+01  7.1501641377988719e+01  7.7994819088307139e+01  7.5268291076621054e+01  6.5455685701404875e+01  7.8738796378449720e+01  6.9340413700419447e+01  6.6640525234359671e+01  6.3907530231572508e+01  7.9415114669082200e+01  7.2699574478191465e+01  5.9405149401534047e+01  5.9340797551807960e+01  5.6896420551577563e+01  6.8967277353036394e+01  7.7382717298547263e+01  6.7663045453187280e+01  6.9311584773662247e+01  6.9449723562424197e+01  6.9516660781279313e+01  7.3404955815495001e+01  6.2408195476228194e+01  7.9873807753970127e+01  5.7365822764280878e+01  7.4805708551514627e+01  6.7737933085872470e+01  6.9682994213071467e+01  6.4011306640822752e+01  5.9737850378662344e+01  6.6468265062198071e+01  7.5156992007055621e+01  6.2038783434584190e+01  7.6611248654168421e+01  6.3311593806989229e+01  5.6983797881268309e+01  6.9585112106043766e+01  6.7747131890338721e+01  7.4406769757638941e+01  6.4300372853733890e+01  7.2043737131213646e+01  6.3643235970929666e+01  6.9846097280957352e+01  8.0646582483977198e+01  5.6023935777771854e+01  6.8447807788987888e+01  6.4687773998182095e+01  5.7689045668066640e+01  6.4682292376876518e+01  6.9478261773470379e+01  6.7604017964740990e+01  6.4242580472123194e+01  6.1590479479195551e+01  7.9054237282534842e+01  6.9632689457092894e+01  6.9570487704829446e+01  6.8839406699541769e+01  6.5010150379755473e+01  6.6073027914748664e+01  6.6833233538170759e+01  6.9642051363807482e+01  6.4165199178147375e+01  6.9664537496240030e+01  6.4132798065854729e+01  7.1233279705476590e+01  7.6302117305135667e+01  7.0280281454587410e+01  5.8696363348842112e+01  7.6497663860043502e+01  6.3133901602549727e+01  5.8551423330612899e+01  5.9222286643593613e+01  5.9184765091433540e+01  6.5854333873651186e+01  6.3095577619427111e+01  5.7097168314115343e+01  7.1760784133029631e+01  7.7275790905021651e+01  6.7571254645234930e+01  6.3248621465642813e+01  6.0268789181512375e+01  7.0080721011741417e+01  6.9523785184347972e+01  5.6800561455013742e+01  7.5993688083523750e+01  6.8801316184076441e+01  7.2087076681286476e+01  6.2945415979347622e+01  7.2157130321544159e+01  7.1546838211667449e+01  7.7862141548108596e+01  6.4093007300111282e+01  6.9645312769130086e+01  6.9617239597128034e+01  6.4161644955277438e+01  6.4081964515459561e+01  6.4079417638691680e+01  5.6906597209507879e+01  7.9669797769754354e+01  6.9030468412760442e+01  7.5872858184302004e+01  6.2854886888192496e+01  7.1553056953133705e+01  7.0435441151771485e+01  6.8435702148735061e+01  7.2663044951360106e+01  7.5287446909575181e+01  7.6533347826560771e+01  6.4441218229617562e+01  6.9763559328709078e+01  6.3847008040449964e+01  5.8195597647691038e+01  6.9648495230694706e+01  6.4224010822754494e+01  7.8558674382290278e+01  6.4332189401797791e+01  7.8079324471661053e+01  7.8412536022589848e+01  5.7250223482652096e+01  5.7093268204120925e+01  7.9261905309695294e+01  7.9285478497135628e+01  7.4183540308451143e+01  6.4439291549016573e+01  6.3717518109219384e+01  6.4323467730178407e+01  6.4370253554586739e+01  6.3436712157987266e+01  6.5724976442344030e+01  5.6675450976810659e+01  6.2619405838410174e+01  6.5403177139961826e+01  7.5488721861143503e+01  7.3862248092312043e+01  6.4637194731612183e+01  6.2747289355198475e+01  6.2756494616810365e+01  6.4021858599939549e+01  5.9858003010286033e+01  7.5087567871882300e+01  7.2343401259084231e+01  6.9680525552447833e+01  7.0155457055448338e+01  6.9954200579345098e+01  7.5833747783723027e+01  5.6420620729051670e+01  8.0130828928988791e+01  8.0017504347031050e+01  8.0028877859543101e+01  5.6542694586696001e+01  5.6348958126149142e+01  5.8344094266465547e+01  6.8874821811533479e+01  5.8793956732010180e+01  7.1097162960167424e+01  6.0087137775173105e+01  6.3939711160636811e+01  6.3883102276331847e+01  6.9713337206352065e+01  6.9757597732559944e+01  6.9738400997645840e+01  6.2847974667109781e+01  8.0227002697618460e+01  6.9770508954523422e+01  6.3807250730811965e+01  5.7369100836379367e+01  7.1189282693827479e+01  6.3403979933527900e+01  7.0220544421696957e+01  7.5749052944371726e+01  6.9717805673012876e+01  6.4121008915588504e+01  6.9658100117520249e+01  6.1224235025350687e+01  5.9105647384575711e+01  5.9145109056899663e+01  5.8547342497634695e+01  7.7124935172099313e+01  6.3119090952694023e+01  7.9151165561925865e+01  5.8770900388108053e+01  6.9541363592917619e+01  6.4253106596508843e+01  7.0442052883090128e+01  7.1124324456086740e+01  5.6480310989478994e+01  6.3656449487596660e+01  7.9122101665249829e+01  5.9421619447407885e+01  6.3624668357604897e+01  6.0873246097332839e+01  7.4841963754761238e+01  6.7821662251242429e+01  6.2248723920063213e+01  6.3498328730219846e+01  6.2313267062305776e+01  6.4372459403367458e+01  7.7289733613967044e+01  7.3214121451770154e+01  6.6953933833590511e+01  6.5041709928477431e+01  6.4515133209718215e+01  6.5255612695477637e+01  6.5434124866961710e+01  6.3027591502895035e+01  6.9089330738025055e+01  6.9599357967446551e+01  6.7226430028939859e+01  6.4122049513675265e+01  6.9655677193011314e+01  6.4308396020047212e+01  7.5985236782784838e+01  6.9227550963739446e+01  7.2198097703498206e+01  7.2125391541376914e+01  7.2518300848217208e+01  6.4947865413086888e+01  6.4947892776334839e+01  5.9972115197421857e+01  6.0008268643741573e+01  5.9723439501160293e+01  6.6315955697890885e+01  5.7073824594184742e+01  6.4094128715086853e+01  6.7257235736152865e+01  7.9178327239210944e+01  7.9498416417037802e+01  7.7983531734538730e+01  6.7025790738490485e+01  6.7862444262610509e+01  6.7370630630474352e+01  6.4328816330248529e+01  6.1688248639359600e+01  7.7499226559295920e+01  7.4875849038200272e+01  5.7130400688057442e+01  7.2540292835392918e+01  7.3130295018163821e+01  6.4602405880977742e+01  7.7068887384289241e+01  6.0680987283417906e+01  7.3297224322447420e+01  6.0446561722162642e+01  7.3399672745222233e+01  6.4751232256823656e+01  6.5138601116079016e+01  6.2076987883840147e+01  7.5200630820417146e+01  6.1899398578887173e+01  6.0326631251420281e+01  6.5054719133093400e+01  6.4524564081583790e+01  7.5250027405737910e+01  6.3209841661966109e+01  6.7097258120237242e+01  7.2338913771538714e+01  6.7122729443446076e+01  6.1711360802423471e+01  7.3186511898445886e+01  5.6348945584446973e+01  8.0181097446073224e+01  7.25