<?xml version="1.0"?>
<VTKFile type="UnstructuredGrid"  version="0.1"  >
<UnstructuredGrid>
<Piece  NumberOfPoints="2331" NumberOfCells="4248">
<Points>
<DataArray  type="Float64"  NumberOfComponents="3"  format="ascii">0 0.3 0  0 0 0  0.04999999999999999 0 0  0.0514582251803892 0.02410733605106462 0  0.0558116365147896 0.04786313285751154 0  0.06299675146291706 0.07092097740850717 0  0.07290879486935808 0.09294463440875382 0  0.08540322682126872 0.1136129493462312 0  0.1002978503657798 0.132624531648159 0  0.117375468351841 0.1497021496342203 0  0.1363870506537689 0.1645967731787313 0  0.1570553655912463 0.177091205130642 0  0.1790790225914929 0.187003248537083 0  0.2021368671424885 0.1941883634852104 0  0.2258926639489354 0.1985417748196108 0  0.25 0.2 0  0.2741073360510646 0.1985417748196108 0  0.2978631328575116 0.1941883634852104 0  0.3209209774085071 0.187003248537083 0  0.3429446344087537 0.177091205130642 0  0.3636129493462312 0.1645967731787313 0  0.3826245316481591 0.1497021496342202 0  0.3997021496342202 0.132624531648159 0  0.4145967731787313 0.1136129493462312 0  0.427091205130642 0.09294463440875371 0  0.4370032485370829 0.07092097740850713 0  0.4441883634852104 0.04786313285751155 0  0.4485417748196108 0.02410733605106461 0  0.45 0 0  0.55 0 0  0.5514582251803892 0.02410733605106462 0  0.5558116365147896 0.04786313285751154 0  0.5629967514629171 0.07092097740850717 0  0.5729087948693581 0.09294463440875382 0  0.5854032268212688 0.1136129493462312 0  0.6002978503657798 0.132624531648159 0  0.617375468351841 0.1497021496342203 0  0.6363870506537689 0.1645967731787313 0  0.6570553655912463 0.177091205130642 0  0.6790790225914929 0.187003248537083 0  0.7021368671424885 0.1941883634852104 0  0.7258926639489354 0.1985417748196108 0  0.75 0.2 0  0.7741073360510646 0.1985417748196108 0  0.7978631328575116 0.1941883634852104 0  0.8209209774085071 0.187003248537083 0  0.8429446344087537 0.177091205130642 0  0.8636129493462312 0.1645967731787313 0  0.8826245316481591 0.1497021496342202 0  0.8997021496342202 0.132624531648159 0  0.9145967731787312 0.1136129493462312 0  0.927091205130642 0.09294463440875371 0  0.9370032485370829 0.07092097740850713 0  0.9441883634852104 0.04786313285751155 0  0.9485417748196108 0.02410733605106461 0  0.95 0 0  1 0 0  1 0.3 0  0.9758926639489353 0.3014582251803892 0  0.9521368671424885 0.3058116365147896 0  0.9290790225914928 0.3129967514629171 0  0.9070553655912461 0.3229087948693581 0  0.8863870506537688 0.3354032268212687 0  0.867375468351841 0.3502978503657798 0  0.8502978503657798 0.367375468351841 0  0.8354032268212687 0.3863870506537689 0  0.822908794869358 0.4070553655912464 0  0.8129967514629171 0.4290790225914929 0  0.8058116365147896 0.4521368671424885 0  0.8014582251803892 0.4758926639489354 0  0.8 0.4999999999999999 0  0.8014582251803892 0.5241073360510646 0  0.8058116365147896 0.5478631328575115 0  0.8129967514629171 0.5709209774085071 0  0.8229087948693581 0.5929446344087538 0  0.8354032268212688 0.6136129493462312 0  0.8502978503657798 0.632624531648159 0  0.867375468351841 0.6497021496342202 0  0.8863870506537689 0.6645967731787313 0  0.9070553655912463 0.677091205130642 0  0.9290790225914929 0.6870032485370829 0  0.9521368671424885 0.6941883634852104 0  0.9758926639489354 0.6985417748196108 0  1 0.7 0  1 1 0  0.95 1 0  0.9485417748196108 0.9758926639489353 0  0.9441883634852104 0.9521368671424885 0  0.9370032485370829 0.9290790225914928 0  0.927091205130642 0.9070553655912463 0  0.9145967731787312 0.8863870506537688 0  0.8997021496342201 0.8673754683518409 0  0.882624531648159 0.8502978503657798 0  0.863612949346231 0.8354032268212686 0  0.8429446344087537 0.822908794869358 0  0.8209209774085071 0.8129967514629171 0  0.7978631328575114 0.8058116365147896 0  0.7741073360510646 0.8014582251803892 0  0.75 0.8 0  0.7258926639489353 0.8014582251803892 0  0.7021368671424885 0.8058116365147896 0  0.6790790225914928 0.8129967514629171 0  0.6570553655912461 0.8229087948693581 0  0.6363870506537688 0.8354032268212688 0  0.617375468351841 0.8502978503657798 0  0.6002978503657798 0.867375468351841 0  0.5854032268212687 0.8863870506537689 0  0.572908794869358 0.9070553655912463 0  0.5629967514629171 0.9290790225914929 0  0.5558116365147896 0.9521368671424885 0  0.5514582251803892 0.9758926639489355 0  0.55 0.9999999999999999 0  0.45 0.9999999999999999 0  0.4485417748196108 0.9758926639489353 0  0.4441883634852104 0.9521368671424885 0  0.4370032485370829 0.9290790225914928 0  0.427091205130642 0.9070553655912463 0  0.4145967731787313 0.8863870506537688 0  0.3997021496342201 0.8673754683518409 0  0.382624531648159 0.8502978503657798 0  0.363612949346231 0.8354032268212686 0  0.3429446344087536 0.822908794869358 0  0.3209209774085071 0.8129967514629171 0  0.2978631328575115 0.8058116365147896 0  0.2741073360510646 0.8014582251803892 0  0.25 0.8 0  0.2258926639489353 0.8014582251803892 0  0.2021368671424885 0.8058116365147896 0  0.1790790225914928 0.8129967514629171 0  0.1570553655912462 0.8229087948693581 0  0.1363870506537688 0.8354032268212688 0  0.117375468351841 0.8502978503657798 0  0.1002978503657797 0.867375468351841 0  0.08540322682126869 0.8863870506537689 0  0.07290879486935797 0.9070553655912463 0  0.06299675146291703 0.9290790225914929 0  0.05581163651478957 0.9521368671424885 0  0.0514582251803892 0.9758926639489355 0  0.04999999999999999 0.9999999999999999 0  0 1 0  -0 0.7000000000000001 0  0.0241073360510646 0.6985417748196108 0  0.04786313285751161 0.6941883634852104 0  0.07092097740850711 0.6870032485370829 0  0.09294463440875372 0.677091205130642 0  0.1136129493462312 0.6645967731787312 0  0.1326245316481591 0.6497021496342202 0  0.1497021496342202 0.632624531648159 0  0.1645967731787313 0.6136129493462312 0  0.177091205130642 0.5929446344087537 0  0.187003248537083 0.5709209774085071 0  0.1941883634852104 0.5478631328575115 0  0.1985417748196108 0.5241073360510646 0  0.2 0.5 0  0.1985417748196108 0.4758926639489353 0  0.1941883634852104 0.4521368671424885 0  0.1870032485370829 0.4290790225914928 0  0.177091205130642 0.4070553655912463 0  0.1645967731787313 0.3863870506537688 0  0.1497021496342202 0.3673754683518409 0  0.132624531648159 0.3502978503657798 0  0.113612949346231 0.3354032268212686 0  0.09294463440875361 0.322908794869358 0  0.07092097740850711 0.3129967514629171 0  0.04786313285751148 0.3058116365147896 0  0.02410733605106464 0.3014582251803892 0  0.6985417748196108 0.5241073360510646 0  0.7 0.5 0  0.6985417748196108 0.4758926639489353 0  0.6941883634852104 0.4521368671424885 0  0.6870032485370829 0.4290790225914928 0  0.677091205130642 0.4070553655912463 0  0.6645967731787312 0.3863870506537688 0  0.6497021496342201 0.3673754683518409 0  0.632624531648159 0.3502978503657798 0  0.613612949346231 0.3354032268212686 0  0.5929446344087537 0.322908794869358 0  0.5709209774085071 0.3129967514629171 0  0.5478631328575114 0.3058116365147896 0  0.5241073360510646 0.3014582251803892 0  0.4999999999999999 0.3 0  0.4758926639489353 0.3014582251803892 0  0.4521368671424885 0.3058116365147896 0  0.4290790225914928 0.3129967514629171 0  0.4070553655912462 0.3229087948693581 0  0.3863870506537688 0.3354032268212687 0  0.367375468351841 0.3502978503657798 0  0.3502978503657798 0.367375468351841 0  0.3354032268212687 0.3863870506537689 0  0.322908794869358 0.4070553655912464 0  0.3129967514629171 0.4290790225914929 0  0.3058116365147896 0.4521368671424885 0  0.3014582251803892 0.4758926639489354 0  0.3 0.4999999999999999 0  0.3014582251803892 0.5241073360510646 0  0.3058116365147896 0.5478631328575115 0  0.3129967514629171 0.5709209774085071 0  0.3229087948693581 0.5929446344087538 0  0.3354032268212687 0.6136129493462312 0  0.3502978503657798 0.632624531648159 0  0.367375468351841 0.6497021496342202 0  0.3863870506537689 0.6645967731787313 0  0.4070553655912463 0.677091205130642 0  0.4290790225914929 0.6870032485370829 0  0.4521368671424885 0.6941883634852104 0  0.4758926639489354 0.6985417748196108 0  0.4999999999999999 0.7 0  0.5241073360510646 0.6985417748196108 0  0.5478631328575116 0.6941883634852104 0  0.5709209774085071 0.6870032485370829 0  0.5929446344087537 0.677091205130642 0  0.6136129493462312 0.6645967731787312 0  0.6326245316481591 0.6497021496342202 0  0.6497021496342202 0.632624531648159 0  0.6645967731787312 0.6136129493462312 0  0.677091205130642 0.5929446344087537 0  0.6870032485370829 0.5709209774085071 0  0.6941883634852104 0.5478631328575115 0  0 0.15 0  1 0.15 0  1 0.85 0  0 0.8500000000000001 0  0 0.075 0  1 0.075 0  1 0.925 0  0 0.925 0  0.5 0.8127595604293815 0  0.5069440078039168 0.190422209288238 0  0.25 0.3127595604293815 0  0.756944007803917 0.3095777907117619 0  0.756944007803917 0.6904222092882382 0  0.25 0.6872404395706185 0  0 0.225 0  0.4255768646051012 0.2241073097134061 0  1 0.7749999999999999 0  0.6773391559270888 0.2766774022734219 0  1 0.225 0  0.6755768646051011 0.7241073097134062 0  0 0.7750000000000001 0  0.5818971135297744 0.2287925518358889 0  0.8318971135297746 0.728792551835889 0  0.1659156081861886 0.7301636995921477 0  0.08376842746533225 0.2299656297760495 0  0.4236002201977974 0.7746535834185855 0  0.0840843918138115 0.7698363004078523 0  0.3340843918138113 0.7301636995921477 0  0.3340843918138114 0.2698363004078523 0  0.9159156081861887 0.2301636995921477 0  0.5840843918138116 0.7698363004078522 0  0.1659156081861887 0.2698363004078523 0  0.9162315725346678 0.7700343702239506 0  0.8340843918138114 0.2698363004078523 0  0.75 0.6146645247768686 0  0.5 0.1125158665330878 0  0.75 0.3874841334669124 0  0.2504983345544904 0.6122915843562002 0  0.2504983345544902 0.3877084156437999 0  0.5 0.8879783056303169 0  0.7005361650220154 0.3333055947145943 0  0.70416808765371 0.6599554817221275 0  0.449930214263529 0.1678187287522426 0  0.2247310981387008 0.7415600637745463 0  0.5155081196221678 0.7563797802146907 0  0.2752689018612993 0.2584399362254537 0  0.05605196690611226 0.8246131191226815 0  0.943948033093887
[...]
<PointData  Scalars="Temperature"> 
<DataArray  type="Float64"  Name="Temperature"  format="ascii">8.8015815104286389e+01  9.0600529622174179e+01  9.0596255379689808e+01  9.0537329302473978e+01  9.0372550835939933e+01  9.0116292422575228e+01  8.9773503168601550e+01  8.9347670500228219e+01  8.8842767464874399e+01  8.8251223092812893e+01  8.7556113229280825e+01  8.6764721620209869e+01  8.5899112140314770e+01  8.4977185546376475e+01  8.4015822113358126e+01  8.3037802318378709e+01  8.2044790196659036e+01  8.1032637773873333e+01  8.0021572369710725e+01  7.9007490161762234e+01  7.8041060895037305e+01  7.7156531956959512e+01  7.6390666232364197e+01  7.5793717366786680e+01  7.5361714035593010e+01  7.5089122007251149e+01  7.4934700553974295e+01  7.4867020220928254e+01  7.4849168976971455e+01  7.4668800168755652e+01  7.4622535628842741e+01  7.4477183139704806e+01  7.4200563003147735e+01  7.3764983515736191e+01  7.3128938865856000e+01  7.2289107428083753e+01  7.1260349212619701e+01  7.0077039443188028e+01  6.8792103321000056e+01  6.7478649327058150e+01  6.6208609922292894e+01  6.5041140462636392e+01  6.4009561079395112e+01  6.3123366186066221e+01  6.2375601050703800e+01  6.1759280257013231e+01  6.1244219478524172e+01  6.0818813286802261e+01  6.0470734010893949e+01  6.0182154753825884e+01  5.9945431299216729e+01  5.9749709840037511e+01  5.9593778252903498e+01  5.9477635326196214e+01  5.9402968883585473e+01  5.9376311430044467e+01  5.9374148933863722e+01  6.0451673638152940e+01  6.0494706449190815e+01  6.0617889375936521e+01  6.0804314954637860e+01  6.1021470286571343e+01  6.1226997492381848e+01  6.1365981251732045e+01  6.1386236148111223e+01  6.1245211713488075e+01  6.0925719656437245e+01  6.0397185978440696e+01  5.9703559817775805e+01  5.8885973594765240e+01  5.8007162753838585e+01  5.7133289824459190e+01  5.6312941631767060e+01  5.5551376957752353e+01  5.4853821627201619e+01  5.4189295233517811e+01  5.3547515864344199e+01  5.2934085924242403e+01  5.2343538703953264e+01  5.1807550991662367e+01  5.1349107654762562e+01  5.0999893567507250e+01  5.0783728492602172e+01  5.0707799996570692e+01  4.9053239562403292e+01  4.9055783364739341e+01  4.9093164076262802e+01  4.9198038515087504e+01  4.9361366510599382e+01  4.9580882288668761e+01  4.9854211140566719e+01  5.0181902573617329e+01  5.0569123648935850e+01  5.1019101438823647e+01  5.1537730092006093e+01  5.2117968363604788e+01  5.2740725358428328e+01  5.3403190712037215e+01  5.4080059573806594e+01  5.4787552192522824e+01  5.5516314114995588e+01  5.6262348452785986e+01  5.7009587628762311e+01  5.7737880005187257e+01  5.8395008193079349e+01  5.8969767760983174e+01  5.9411059607988676e+01  5.9731415382732749e+01  5.9925474570777581e+01  6.0026119612704335e+01  6.0070290985066848e+01  6.0080748729984606e+01  6.0223581900458917e+01  6.0267394598756745e+01  6.0396767276884283e+01  6.0631884562501334e+01  6.1001415723428906e+01  6.1541046881364480e+01  6.2244887688368991e+01  6.3111264244804829e+01  6.4096958413441158e+01  6.5169393317170531e+01  6.6252129681641776e+01  6.7278303396309184e+01  6.8206415057846584e+01  6.8982543618272359e+01  6.9609596266313488e+01  7.0086009579506609e+01  7.0440239857538785e+01  7.0697646234214758e+01  7.0885296868199418e+01  7.1023988636418807e+01  7.1127550106201809e+01  7.1205594237231907e+01  7.1266923730391014e+01  7.1313436722460622e+01  7.1347783940255610e+01  7.1368660197209806e+01  7.1376513124696359e+01  7.1376769626523512e+01  7.1131979357385845e+01  7.1123595475791120e+01  7.1102748023465267e+01  7.1081192665955726e+01  7.1079471918514969e+01  7.1128781739387591e+01  7.1269130855143402e+01  7.1542358419343728e+01  7.1992890610679567e+01  7.2640117266081717e+01  7.3503265317172449e+01  7.4559176103512115e+01  7.5768309304171709e+01  7.7047944747357874e+01  7.8327029984673288e+01  7.9543539354699618e+01  8.0672339490268698e+01  8.1720205255772285e+01  8.2722262158118298e+01  8.3690907314168868e+01  8.4630594922686427e+01  8.5518310468125549e+01  8.6332579604397651e+01  8.7032676746974559e+01  8.7560555774876249e+01  8.7897761123789380e+01  5.7268906690255911e+01  5.8121586085021633e+01  5.9057422334451637e+01  6.0038550611061574e+01  6.1045512283920964e+01  6.2086056652268347e+01  6.3187558699849774e+01  6.4374619970991020e+01  6.5668301806037988e+01  6.7034614956391550e+01  6.8457701220475386e+01  6.9913186249482251e+01  7.1346846632812557e+01  7.2741940754621211e+01  7.4083512884519664e+01  7.5363177187758680e+01  7.6565760042514654e+01  7.7687750029748429e+01  7.8695602748560631e+01  7.9559100617343262e+01  8.0206746539711901e+01  8.0612124047627603e+01  8.0724561534856790e+01  8.0528933732233526e+01  8.0008758989338574e+01  7.9205329405943033e+01  7.8157629074112705e+01  7.6934369870982664e+01  7.5628931032994103e+01  7.4313667678974852e+01  7.3038633115937813e+01  7.1782493830443443e+01  7.0564160340281092e+01  6.9349873446573724e+01  6.8113623700121096e+01  6.6864280308361757e+01  6.5590605405947997e+01  6.4345843997994223e+01  6.3128077194246998e+01  6.1976158747850192e+01  6.0882716961611848e+01  5.9856807061169526e+01  5.8896486117957807e+01  5.8022520756487168e+01  5.7233755381653495e+01  5.6565797778150475e+01  5.6052864322780735e+01  5.5717755186067940e+01  5.5593617220258736e+01  5.5694652113230681e+01  5.6022496306532041e+01  5.6558517215020622e+01  8.9349608625897375e+01  5.9926932167831346e+01  4.9848659843090054e+01  7.1224079762835714e+01  9.0217140105674574e+01  5.9547112637041955e+01  4.9296926766812092e+01  7.1327982916710326e+01  6.0613866538795619e+01  7.4100145340138766e+01  8.2471053296466891e+01  6.2925196945484998e+01  5.4276380265714558e+01  7.0201659334725846e+01  8.8471018257660234e+01  7.6907279842283359e+01  5.0411461990679186e+01  6.5929692107100735e+01  6.0282324543692937e+01  5.5760690842445435e+01  7.1149881269908207e+01  7.0885053914522643e+01  5.2592306621054121e+01  7.0675532971204490e+01  8.7685625873743376e+01  6.3229757137274717e+01  7.1026207934280166e+01  6.7173985062130811e+01  8.0339295933822029e+01  6.0650300591822742e+01  5.8316852248448804e+01  8.5245797018212699e+01  5.0926103376617384e+01  6.1739068809999949e+01  5.5187193898334719e+01  7.4563755173078007e+01  6.1516365358472015e+01  7.2183270684441609e+01  8.1179089244085034e+01  6.0360305812786862e+01  6.3873934034025829e+01  5.5224506633316622e+01  7.5730424058901932e+01  6.9852435329998855e+01  6.0274833330048700e+01  8.2106978841797329e+01  7.1142257788382196e+01  6.0193919687024128e+01  8.8764555380357777e+01  5.0261849066981291e+01  7.4810990026089357e+01  5.4578802757559345e+01  6.4228773421139081e+01  6.1880633517918803e+01  7.1033354678260736e+01  8.3697283028289377e+01  6.9196008952426070e+01  8.1115603674255823e+01  5.9272331690762151e+01  7.4706311377831142e+01  5.9910176486089789e+01  5.6662040756333141e+01  7.9430729408755511e+01  7.4839288234788626e+01  6.0150694197392212e+01  6.0211179402790869e+01  8.3725890589412330e+01  6.8743075309055399e+01  7.2491894713503200e+01  5.4163197898796305e+01  6.1825460596779287e+01  6.8356859242278247e+01  7.8542854968324917e+01  7.9069573377925380e+01  5.6862158642667701e+01  5.7256512343797020e+01  6.7911510160717611e+01  5.3523959000045075e+01  6.2762793972232451e+01  5.8252391880026252e+01  7.4759922379439658e+01  7.7257543689261269e+01  6.5170715644705069e+01  6.5443083848738894e+01  7.2879499414924112e+01  5.1652703090701792e+01  5.1730151738094690e+01  6.1642657361898479e+01  8.6784607253384678e+01  7.1114080809699189e+01  6.0949723043848664e+01  7.0774084403648772e+01  8.6322284716568348e+01  7.0971411526426621e+01  6.0464656722539857e+01  6.1218290527402779e+01  5.0757846646443120e+01  8.7934400393394696e+01  5.9885566358646216e+01  4.9735671600537806e+01  8.9531599947482604e+01  7.1229921992975832e+01  6.1543370841268604e+01  5.3461513590757100e+01  7.3622962130060870e+01  5.4974970235657523e+01  5.8219750560743471e+01  6.7559686571843002e+01  8.5052322269187059e+01  6.0562903249166311e+01  8.0128127933491200e+01  7.1030242440959711e+01  7.1008310355346438e+01  8.8006852760486964e+01  5.0779127980145752e+01  7.1823656798519195e+01  8.2354174296358977e+01  6.0052895470154631e+01  5.2781496301932883e+01  8.1559834585458930e+01  7.0709057570265571e+01  6.5927587869046334e+01  6.5900996037794016e+01  6.3473491916155147e+01  7.6474107212308255e+01  5.6134046875976232e+01  7.7402551720135278e+01  5.5761800524036943e+01  6.1085053638870797e+01  6.2832854024714820e+01  7.0663375910533830e+01  6.4262841178191195e+01  5.2707894502456902e+01  7.0171656451078135e+01  7.0261977091756833e+01  8.0541719326074855e+01  6.7401303610947934e+01  8.4945660937375607e+01  6.1447760644607335e+01  5.8461450433846437e+01  7.5368009220016376e+01  8.8396968013999739e+01  6.1938479486828129e+01  6.0348165611916087e+01  7.1119276633554392e+01  5.9738466719096046e+01  7.1179837882367806e+01  6.0118875982167971e+01  6.2302983936103701e+01  5.0132479295853074e+01  7.5282770134444547e+01  6.2612773625640564e+01  6.2488638954838670e+01  7.4715556285103176e+01  8.8890297760212178e+01  5.5676679775798782e+01  5.5661230861790891e+01  5.4638902612849044e+01  7.3462708904123716e+01  8.1121582820662198e+01  7.1148599473832292e+01  8.0901367075933095e+01  7.1065440639846116e+01  7.4913943956075443e+01  7.4360254885265363e+01  6.0622422388156139e+01  6.1155063151077862e+01  5.9734095683843307e+01  6.0064160475764183e+01  6.0602104964987042e+01  5.0145539033003217e+01  7.1136015348362164e+01  4.9556008055128004e+01  6.0397692606099824e+01  8.8149761383575850e+01  5.9420049227652385e+01  9.0499320633040043e+01  5.9726786649872096e+01  5.9660173487135495e+01  8.9811444920555118e+01  4.9117340078958222e+01  7.1363755355677171e+01  5.0618353789740482e+01  7.1277836127541249e+01  7.1294421901870905e+01  8.0251680545731276e+01  7.3238619018109333e+01  7.0402271867334179e+01  8.1355668701142037e+01  6.0961285145594069e+01  5.1199290677706465e+01  6.8740726522008615e+01  8.3484688727457666e+01  5.3861324380713505e+01  5.4811506754943295e+01  6.1411015208801906e+01  5.0485169782209056e+01  5.9197972373150186e+01  7.3428155219861623e+01  7.1124574266819209e+01  8.2254693039793324e+01  8.6311034052745185e+01  6.9467490462557492e+01  7.3603589184103953e+01  6.3177976352949429e+01  6.2187009236452631e+01  5.9555908634232708e+01  5.5532278354266779e+01  5.5697529248460690e+01  4.9446587499589747e+01  8.9981974085628011e+01  8.7237478979030328e+01  5.3502961649676656e+01  6.9290614059629476e+01  8.3430087172378521e+01  6.1258206253101584e+01  7.2249642540575223e+01  5.5244979269371342e+01  6.0665198587085939e+01  6.3690504427366029e+01  7.7959487779736151e+01  5.6453544683774808e+01  6.4042891039764200e+01  9.0360539322122293e+01  5.9512016551668935e+01  4.9206298704429628e+01  7.1345499195109539e+01  6.4597584736143389e+01  5.6238798918349168e+01  7.5911515559649004e+01  7.1160780860952585e+01  7.1190576161287680e+01  6.0097248937805936e+01  6.0052119682567493e+01  6.6140398798997566e+01  8.8647830816662520e+01  8.8245851394998667e+01  8.9060827452538973e+01  7.6509163382917791e+01  7.6254460627815334e+01  8.7381974989736065e+01  6.1492591718551942e+01  7.1044612849067221e+01  7.0827120684067083e+01  6.0949099932520106e+01  6.4996262449697085e+01  6.3467478671569658e+01  7.8447905547477916e+01  5.6824854201161273e+01  4.9978444817030358e+01  5.5489382898129513e+01  5.4798871078451896e+01  7.1453571903100823e+01  6.0095436624946586e+01  6.1501537512276542e+01  7.4810492826933228e+01  7.4680674897300932e+01  5.9058726108750811e+01  5.9547201463415803e+01  7.8365126749905997e+01  7.8963426706401009e+01  6.5086451091600196e+01  5.2164180375594086e+01  6.0278800904680566e+01  6.8129086007885192e+01  8.1153447523492247e+01  6.6312421366627404e+01  8.4339519914899824e+01  6.8317615698420568e+01  6.9473639254764592e+01  7.0379187731363601e+01  8.1669968887873409e+01  8.2747868005212410e+01  6.9780410580443245e+01  5.8773648186033377e+01  5.9259393754527650e+01  8.1746462505057465e+01  7.0803902768446576e+01  8.0864772187779266e+01  8.4103992862853801e+01  6.8813535419341434e+01  7.1524881813876277e+01  5.9923005301559940e+01  5.7444945746819123e+01  5.7571228323057106e+01  7.6289858914750823e+01  7.6056526221524578e+01  8.5994783274482288e+01  5.5261844764902442e+01  5.4975932733359429e+01  5.4437405018862123e+01  7.7655698164385029e+01  5.6447884404633974e+01  6.0523297267738243e+01  7.7497093348042227e+01  6.1807800859899061e+01  6.2396029340441586e+01  6.3443275440773853e+01  7.4745615715835058e+01  7.4436655457778485e+01  6.4899817756538269e+01  6.6922859463958005e+01  5.0564034439224919e+01  8.7177500922591094e+01  6.1467312172324270e+01  7.2744833264903733e+01  5.1822968987208100e+01  5.1256853835709897e+01  6.2307346988220232e+01  6.1807101933560077e+01  6.1458127154388890e+01  7.0525477591595205e+01  7.9158928903097248e+01  7.9650192125350898e+01  5.7426244197620726e+01  5.7695269220088996e+01  6.4582828684649371e+01  7.1310915564727551e+01  7.4191920785567277e+01  6.9686158938936970e+01  6.0951574551410445e+01  5.5739472252271760e+01  6.0448315716574754e+01  7.1080465639599808e+01  7.2117604882848838e+01  4.9054527091125642e+01  5.9375164170063783e+01  9.0598732271438976e+01  7.1376727731659429e+01  7.4934857000422895e+01  6.9181462701988337e+01  7.9475211042211782e+01  6.2674567597946520e+01  5.6209135921889725e+01  6.1229476184953036e+01  7.4533136853182157e+01  7.4870017928637125e+01  8.0418500967027512e+01  6.2555380816158035e+01  5.2264462317235576e+01  5.1900712184994603e+01  5.1377381521179728e+01  5.2217042168884760e+01  5.7728696457150434e+01  7.9663906561874171e+01  7.2648131254966202e+01  6.0162609864678636e+01  6.0102030421739158e+01  6.0289523494273197e+01  5.7347343334898454e+01  5.6367532337784276e+01  7.4802039239687858e+01  7.4452183459056158e+01  8.5696179313428857e+01  8.0680575880405158e+01  6.4335310066518645e+01  8.7044341406303928e+01  7.0743974313141692e+01  6.6288125559172556e+01  6.0786719568838883e+01  8.8276444858980028e+01  7.5864451150927025e+01  5.4200024863217742e+01  5.4145557116457780e+01  5.0423803627271802e+01  7.0163845884893121e+01  8.4570285045500341e+01  6.7973774753863083e+01  7.0617105149437904e+01  7.0833980151427198e+01  7.0924217253339407e+01  7.7694931451331584e+01  5.8576641871118973e+01  8.9113441566707834e+01  5.1140948537137149e+01  8.0087785662610571e+01  6.7141014193705303e+01  7.1155825977537219e+01  6.0192227570958792e+01  5.4711948930757032e+01  6.4972191165809306e+01  8.0502315348701799e+01  5.8689202238234969e+01  8.3225271857132526e+01  5.9877527534785592e+01  5.0552505937223529e+01  7.1049498022090674e+01  6.7128035803685165e+01  7.9387642654481880e+01  6.0780287873767129e+01  7.4641798857722563e+01  5.9422907934830867e+01  7.1367345200096850e+01  9.0528545496951523e+01  4.9098310581337707e+01  6.9250474977349256e+01  6.1932613078080124e+01  5.1624374092484381e+01  6.1556291657604390e+01  7.0899260747134747e+01  6.6838535549146528e+01  6.0697983143103592e+01  5.7930563505205058e+01  8.7619502869072932e+01  7.1200877023422123e+01  7.1009929824543462e+01  6.9957273244019419e+01  6.2208505213237629e+01  6.5354594586385602e+01  6.6613242473913658e+01  7.1112824663639785e+01  6.0529785534993984e+01  7.1134610861348065e+01  6.1043546555539102e+01  7.3255782354565156e+01  8.2566196897503957e+01  7.2381286657728225e+01  5.3212882622804337e+01  8.2997265172961065e+01  6.0494722141992192e+01  5.2967381545870474e+01  5.4030167978253466e+01  5.3948302480768405e+01  6.3794528325732323e+01  6.0447304858009176e+01  5.0726435721281405e+01  7.4147325751410833e+01  8.4359040012397486e+01  6.7809904040414196e+01  6.0696128609064587e+01  5.5545002332076500e+01  7.2037375079018958e+01  7.0925265601023028e+01  5.0275477294282666e+01  8.2031290238640040e+01  6.9873733802095600e+01  7.4696905947201500e+01  6.0201102107126161e+01  7.4823076611422835e+01  7.3766191931560357e+01  8.5434618657052965e+01  6.0348517855722555e+01  7.1094613740765652e+01  7.1072984227375358e+01  6.0511192846993218e+01  6.0347929319013126e+01  6.0340111889043946e+01  5.0440865543093786e+01  8.8740846900673120e+01  6.9349541348077722e+01  8.1935556076652873e+01  6.0046791512647225e+01  7.3843922517896004e+01  7.1848088352813576e+01  6.8329389543047625e+01  7.5862448355139847e+01  8.0869248157911471e+01  8.3002705975761657e+01  6.1155123314565486e+01  7.1256472418970247e+01  5.9844070221617315e+01  5.2428965729379037e+01  7.1261238362403773e+01  6.2300409172896082e+01  8.6721918690805836e+01  6.0897931371511575e+01  8.5840499198454310e+01  8.6442176881934614e+01  5.0956994820740213e+01  5.0718089479582254e+01  8.7997692601547087e+01  8.8040127624122405e+01  7.8638178010815651e+01  6.2658538058470100e+01  6.0538697004711992e+01  6.1360008847543234e+01  6.2543291859652697e+01  6.0999213863288951e+01  6.3511778935853009e+01  5.0086010188273804e+01  5.9653890503069917e+01  6.4247673302537549e+01  8.1164744854721491e+01  7.8472167467209971e+01  6.1736676177420463e+01  5.9068046991392798e+01  5.9885068692568595e+01  6.1966830784461955e+01  5.4944284647337206e+01  8.0517737738544909e+01  7.5193235382581037e+01  7.1149585022719506e+01  7.2125389397527314e+01  7.1801066291823773e+01  8.1841122841507612e+01  4.9699613809809982e+01  8.9583713555654256e+01  8.9376335279837562e+01  8.9397120889836870e+01  4.9885947448015230e+01  4.9591396043694623e+01  5.2614970667422860e+01  6.9920641540998133e+01  5.3333219240542647e+01  7.3758879584731616e+01  5.5193868341434865e+01  6.0037485408492820e+01  5.9921295428262724e+01  7.1190224083776357e+01  7.1250090999343541e+01  7.1224554348196094e+01  6.0038286572086591e+01  8.9759796258456092e+01  7.1266723580086037e+01  5.9763045706671143e+01  5.1140831991288557e+01  7.3150837608827217e+01  6.0954123381929129e+01  7.1484853952658412e+01  8.1670823783753605e+01  7.1410585349734589e+01  6.0434881710321093e+01  7.1132684018929737e+01  5.6856829546540816e+01  5.3778565864830256e+01  5.3863678514770427e+01  5.2939429641598409e+01  8.4088161840293139e+01  6.0479588741159318e+01  8.7792246444765979e+01  5.3269639237969365e+01  7.0943602486117499e+01  6.0671690733131172e+01  7.2634228352195265e+01  7.3050533038991432e+01  4.9790245930795287e+01  6.1368307225644770e+01  8.7743643077745276e+01  5.4371375032185838e+01  5.9384476167553402e+01  5.6736249217177424e+01  7.9857031045379429e+01  6.8225027576185482e+01  5.8327759829489942e+01  6.1103229046119758e+01  5.9138682136508990e+01  6.1554000208956104e+01  8.4426243052897647e+01  7.7366011053442108e+01  6.6797634034602780e+01  6.2618457195203199e+01  6.1367384503909406e+01  6.2737111299203612e+01  6.3222506035346974e+01  6.0330657048687009e+01  7.0258042199560464e+01  7.1114658235327084e+01  6.7270409875512129e+01  6.0435840017981711e+01  7.1128835995369556e+01  6.0820384216352338e+01  8.2063019807812680e+01  7.0577682845772372e+01  7.4932723210987589e+01  7.4813094906205322e+01  7.5536270576938676e+01  6.2031630551060495e+01  6.3497859245893871e+01  5.5184585082597820e+01  5.5286142424597763e+01  5.4824995675596107e+01  6.4695086772904773e+01  5.0694095890528892e+01  6.0355508531128230e+01  6.6288311404713596e+01  8.7843417047755779e+01  8.8427373613988621e+01  8.5660243594234245e+01  6.5814500178822556e+01  6.8319362772905635e+01  6.7501611761880270e+01  6.1293792776468194e+01  5.8106608747209670e+01  8.4812943377662478e+01  7.9961678726535780e+01  5.0783756436175281e+01  7.5631074757615707e+01  7.6701340788538715e+01  6.1444714850641645e+01  8.4004669175789303e+01  5.6379701199497035e+01  7.6990203469476242e+01  5.6004037497833622e+01  7.7167093387380717e+01  6.3172768313216544e+01  6.3811037058131575e+01  5.8750971561279314e+01  8.0515768245600810e+01  5.8439706532234119e+01  5.5849258915280977e+01  6.2583094747068010e+01  6.1755552396836038e+01  8.0663692117717190e+01  6.0633511459750110e+01  6.5971231518248558e+01  7.5876092225347321e+01  6.6087173240652078e+01  5.7552089417312395e+01  7.6817250704359722e+01  4.9591068194367068e+01  8.9675731339629948e+01  7.55