<?xml version="1.0"?>
<VTKFile type="UnstructuredGrid"  version="0.1"  >
<UnstructuredGrid>
<Piece  NumberOfPoints="2331" NumberOfCells="4248">
<Points>
<DataArray  type="Float64"  NumberOfComponents="3"  format="ascii">0 0.3 0  0 0 0  0.04999999999999999 0 0  0.0514582251803892 0.02410733605106462 0  0.0558116365147896 0.04786313285751154 0  0.06299675146291706 0.07092097740850717 0  0.07290879486935808 0.09294463440875382 0  0.08540322682126872 0.1136129493462312 0  0.1002978503657798 0.132624531648159 0  0.117375468351841 0.1497021496342203 0  0.1363870506537689 0.1645967731787313 0  0.1570553655912463 0.177091205130642 0  0.1790790225914929 0.187003248537083 0  0.2021368671424885 0.1941883634852104 0  0.2258926639489354 0.1985417748196108 0  0.25 0.2 0  0.2741073360510646 0.1985417748196108 0  0.2978631328575116 0.1941883634852104 0  0.3209209774085071 0.187003248537083 0  0.3429446344087537 0.177091205130642 0  0.3636129493462312 0.1645967731787313 0  0.3826245316481591 0.1497021496342202 0  0.3997021496342202 0.132624531648159 0  0.4145967731787313 0.1136129493462312 0  0.427091205130642 0.09294463440875371 0  0.4370032485370829 0.07092097740850713 0  0.4441883634852104 0.04786313285751155 0  0.4485417748196108 0.02410733605106461 0  0.45 0 0  0.55 0 0  0.5514582251803892 0.02410733605106462 0  0.5558116365147896 0.04786313285751154 0  0.5629967514629171 0.07092097740850717 0  0.5729087948693581 0.09294463440875382 0  0.5854032268212688 0.1136129493462312 0  0.6002978503657798 0.132624531648159 0  0.617375468351841 0.1497021496342203 0  0.6363870506537689 0.1645967731787313 0  0.6570553655912463 0.177091205130642 0  0.6790790225914929 0.187003248537083 0  0.7021368671424885 0.1941883634852104 0  0.7258926639489354 0.1985417748196108 0  0.75 0.2 0  0.7741073360510646 0.1985417748196108 0  0.7978631328575116 0.1941883634852104 0  0.8209209774085071 0.187003248537083 0  0.8429446344087537 0.177091205130642 0  0.8636129493462312 0.1645967731787313 0  0.8826245316481591 0.1497021496342202 0  0.8997021496342202 0.132624531648159 0  0.9145967731787312 0.1136129493462312 0  0.927091205130642 0.09294463440875371 0  0.9370032485370829 0.07092097740850713 0  0.9441883634852104 0.04786313285751155 0  0.9485417748196108 0.02410733605106461 0  0.95 0 0  1 0 0  1 0.3 0  0.9758926639489353 0.3014582251803892 0  0.9521368671424885 0.3058116365147896 0  0.9290790225914928 0.3129967514629171 0  0.9070553655912461 0.3229087948693581 0  0.8863870506537688 0.3354032268212687 0  0.867375468351841 0.3502978503657798 0  0.8502978503657798 0.367375468351841 0  0.8354032268212687 0.3863870506537689 0  0.822908794869358 0.4070553655912464 0  0.8129967514629171 0.4290790225914929 0  0.8058116365147896 0.4521368671424885 0  0.8014582251803892 0.4758926639489354 0  0.8 0.4999999999999999 0  0.8014582251803892 0.5241073360510646 0  0.8058116365147896 0.5478631328575115 0  0.8129967514629171 0.5709209774085071 0  0.8229087948693581 0.5929446344087538 0  0.8354032268212688 0.6136129493462312 0  0.8502978503657798 0.632624531648159 0  0.867375468351841 0.6497021496342202 0  0.8863870506537689 0.6645967731787313 0  0.9070553655912463 0.677091205130642 0  0.9290790225914929 0.6870032485370829 0  0.9521368671424885 0.6941883634852104 0  0.9758926639489354 0.6985417748196108 0  1 0.7 0  1 1 0  0.95 1 0  0.9485417748196108 0.9758926639489353 0  0.9441883634852104 0.9521368671424885 0  0.9370032485370829 0.9290790225914928 0  0.927091205130642 0.9070553655912463 0  0.9145967731787312 0.8863870506537688 0  0.8997021496342201 0.8673754683518409 0  0.882624531648159 0.8502978503657798 0  0.863612949346231 0.8354032268212686 0  0.8429446344087537 0.822908794869358 0  0.8209209774085071 0.8129967514629171 0  0.7978631328575114 0.8058116365147896 0  0.7741073360510646 0.8014582251803892 0  0.75 0.8 0  0.7258926639489353 0.8014582251803892 0  0.7021368671424885 0.8058116365147896 0  0.6790790225914928 0.8129967514629171 0  0.6570553655912461 0.8229087948693581 0  0.6363870506537688 0.8354032268212688 0  0.617375468351841 0.8502978503657798 0  0.6002978503657798 0.867375468351841 0  0.5854032268212687 0.8863870506537689 0  0.572908794869358 0.9070553655912463 0  0.5629967514629171 0.9290790225914929 0  0.5558116365147896 0.9521368671424885 0  0.5514582251803892 0.9758926639489355 0  0.55 0.9999999999999999 0  0.45 0.9999999999999999 0  0.4485417748196108 0.9758926639489353 0  0.4441883634852104 0.9521368671424885 0  0.4370032485370829 0.9290790225914928 0  0.427091205130642 0.9070553655912463 0  0.4145967731787313 0.8863870506537688 0  0.3997021496342201 0.8673754683518409 0  0.382624531648159 0.8502978503657798 0  0.363612949346231 0.8354032268212686 0  0.3429446344087536 0.822908794869358 0  0.3209209774085071 0.8129967514629171 0  0.2978631328575115 0.8058116365147896 0  0.2741073360510646 0.8014582251803892 0  0.25 0.8 0  0.2258926639489353 0.8014582251803892 0  0.2021368671424885 0.8058116365147896 0  0.1790790225914928 0.8129967514629171 0  0.1570553655912462 0.8229087948693581 0  0.1363870506537688 0.8354032268212688 0  0.117375468351841 0.8502978503657798 0  0.1002978503657797 0.867375468351841 0  0.08540322682126869 0.8863870506537689 0  0.07290879486935797 0.9070553655912463 0  0.06299675146291703 0.9290790225914929 0  0.05581163651478957 0.9521368671424885 0  0.0514582251803892 0.9758926639489355 0  0.04999999999999999 0.9999999999999999 0  0 1 0  -0 0.7000000000000001 0  0.0241073360510646 0.6985417748196108 0  0.04786313285751161 0.6941883634852104 0  0.07092097740850711 0.6870032485370829 0  0.09294463440875372 0.677091205130642 0  0.1136129493462312 0.6645967731787312 0  0.1326245316481591 0.6497021496342202 0  0.1497021496342202 0.632624531648159 0  0.1645967731787313 0.6136129493462312 0  0.177091205130642 0.5929446344087537 0  0.187003248537083 0.5709209774085071 0  0.1941883634852104 0.5478631328575115 0  0.1985417748196108 0.5241073360510646 0  0.2 0.5 0  0.1985417748196108 0.4758926639489353 0  0.1941883634852104 0.4521368671424885 0  0.1870032485370829 0.4290790225914928 0  0.177091205130642 0.4070553655912463 0  0.1645967731787313 0.3863870506537688 0  0.1497021496342202 0.3673754683518409 0  0.132624531648159 0.3502978503657798 0  0.113612949346231 0.3354032268212686 0  0.09294463440875361 0.322908794869358 0  0.07092097740850711 0.3129967514629171 0  0.04786313285751148 0.3058116365147896 0  0.02410733605106464 0.3014582251803892 0  0.6985417748196108 0.5241073360510646 0  0.7 0.5 0  0.6985417748196108 0.4758926639489353 0  0.6941883634852104 0.4521368671424885 0  0.6870032485370829 0.4290790225914928 0  0.677091205130642 0.4070553655912463 0  0.6645967731787312 0.3863870506537688 0  0.6497021496342201 0.3673754683518409 0  0.632624531648159 0.3502978503657798 0  0.613612949346231 0.3354032268212686 0  0.5929446344087537 0.322908794869358 0  0.5709209774085071 0.3129967514629171 0  0.5478631328575114 0.3058116365147896 0  0.5241073360510646 0.3014582251803892 0  0.4999999999999999 0.3 0  0.4758926639489353 0.3014582251803892 0  0.4521368671424885 0.3058116365147896 0  0.4290790225914928 0.3129967514629171 0  0.4070553655912462 0.3229087948693581 0  0.3863870506537688 0.3354032268212687 0  0.367375468351841 0.3502978503657798 0  0.3502978503657798 0.367375468351841 0  0.3354032268212687 0.3863870506537689 0  0.322908794869358 0.4070553655912464 0  0.3129967514629171 0.4290790225914929 0  0.3058116365147896 0.4521368671424885 0  0.3014582251803892 0.4758926639489354 0  0.3 0.4999999999999999 0  0.3014582251803892 0.5241073360510646 0  0.3058116365147896 0.5478631328575115 0  0.3129967514629171 0.5709209774085071 0  0.3229087948693581 0.5929446344087538 0  0.3354032268212687 0.6136129493462312 0  0.3502978503657798 0.632624531648159 0  0.367375468351841 0.6497021496342202 0  0.3863870506537689 0.6645967731787313 0  0.4070553655912463 0.677091205130642 0  0.4290790225914929 0.6870032485370829 0  0.4521368671424885 0.6941883634852104 0  0.4758926639489354 0.6985417748196108 0  0.4999999999999999 0.7 0  0.5241073360510646 0.6985417748196108 0  0.5478631328575116 0.6941883634852104 0  0.5709209774085071 0.6870032485370829 0  0.5929446344087537 0.677091205130642 0  0.6136129493462312 0.6645967731787312 0  0.6326245316481591 0.6497021496342202 0  0.6497021496342202 0.632624531648159 0  0.6645967731787312 0.6136129493462312 0  0.677091205130642 0.5929446344087537 0  0.6870032485370829 0.5709209774085071 0  0.6941883634852104 0.5478631328575115 0  0 0.15 0  1 0.15 0  1 0.85 0  0 0.8500000000000001 0  0 0.075 0  1 0.075 0  1 0.925 0  0 0.925 0  0.5 0.8127595604293815 0  0.5069440078039168 0.190422209288238 0  0.25 0.3127595604293815 0  0.756944007803917 0.3095777907117619 0  0.756944007803917 0.6904222092882382 0  0.25 0.6872404395706185 0  0 0.225 0  0.4255768646051012 0.2241073097134061 0  1 0.7749999999999999 0  0.6773391559270888 0.2766774022734219 0  1 0.225 0  0.6755768646051011 0.7241073097134062 0  0 0.7750000000000001 0  0.5818971135297744 0.2287925518358889 0  0.8318971135297746 0.728792551835889 0  0.1659156081861886 0.7301636995921477 0  0.08376842746533225 0.2299656297760495 0  0.4236002201977974 0.7746535834185855 0  0.0840843918138115 0.7698363004078523 0  0.3340843918138113 0.7301636995921477 0  0.3340843918138114 0.2698363004078523 0  0.9159156081861887 0.2301636995921477 0  0.5840843918138116 0.7698363004078522 0  0.1659156081861887 0.2698363004078523 0  0.9162315725346678 0.7700343702239506 0  0.8340843918138114 0.2698363004078523 0  0.75 0.6146645247768686 0  0.5 0.1125158665330878 0  0.75 0.3874841334669124 0  0.2504983345544904 0.6122915843562002 0  0.2504983345544902 0.3877084156437999 0  0.5 0.8879783056303169 0  0.7005361650220154 0.3333055947145943 0  0.70416808765371 0.6599554817221275 0  0.449930214263529 0.1678187287522426 0  0.2247310981387008 0.7415600637745463 0  0.5155081196221678 0.7563797802146907 0  0.2752689018612993 0.2584399362254537 0  0.05605196690611226 0.8246131191226815 0  0.943948033093887
[...]
<PointData  Scalars="Temperature"> 
<DataArray  type="Float64"  Name="Temperature"  format="ascii">8.4505088918776067e+01  8.6607286576985260e+01  8.6603813656819895e+01  8.6555938156467519e+01  8.6422053036127480e+01  8.6213812640973600e+01  8.5935201533261647e+01  8.5589000003767865e+01  8.5178403762663834e+01  8.4697221814508239e+01  8.4131684521059796e+01  8.3487791043299580e+01  8.2783639612863553e+01  8.2033995008445274e+01  8.1252873125769952e+01  8.0458974480200496e+01  7.9653642794239445e+01  7.8833329093453855e+01  7.8014139984636543e+01  7.7192409407016555e+01  7.6409151459971739e+01  7.5692294454818850e+01  7.5071827607697045e+01  7.4588909741162979e+01  7.4240325430351575e+01  7.4021565589335850e+01  7.3898601650079556e+01  7.3845492630968209e+01  7.3831652835765411e+01  7.3683683646634947e+01  7.3644871633848510e+01  7.3523238423069472e+01  7.3292523591251680e+01  7.2930218433140794e+01  7.2402308728642737e+01  7.1706173570389637e+01  7.0853949073823642e+01  6.9874079802635592e+01  6.8810354858891614e+01  6.7723574308777359e+01  6.6673900745861928e+01  6.5710953625673497e+01  6.4863124269130950e+01  6.4138533620629545e+01  6.3530944111445024e+01  6.3033772683923807e+01  6.2621190601865301e+01  6.2282465310810892e+01  6.2006579592291772e+01  6.1778627691605308e+01  6.1592079678021456e+01  6.1438084194938213e+01  6.1315519885564065e+01  6.1224269035838496e+01  6.1165616092113865e+01  6.1144677042326087e+01  6.1142976517522442e+01  6.1983336822566045e+01  6.2016636889495743e+01  6.2111753080801087e+01  6.2254828694601443e+01  6.2419375312048466e+01  6.2570608353851128e+01  6.2663277439481554e+01  6.2653622466250283e+01  6.2506385779836592e+01  6.2206949989681476e+01  6.1728605160659605e+01  6.1108241024268516e+01  6.0380580333794519e+01  5.9599358395347949e+01  5.8821969178090228e+01  5.8091680418162923e+01  5.7413680293221937e+01  5.6793328946071512e+01  5.6203986345740859e+01  5.5636767924894215e+01  5.5096216356933240e+01  5.4577200762076835e+01  5.4106915915770664e+01  5.3705106767724601e+01  5.3399209135074742e+01  5.3209915970752782e+01  5.3143436104033931e+01  5.1691508899270886e+01  5.1693739794804749e+01  5.1726537174359549e+01  5.1818542886392677e+01  5.1961793946523898e+01  5.2154249027951387e+01  5.2393718344947594e+01  5.2680559039490021e+01  5.3019149149151190e+01  5.3412085857793848e+01  5.3864223174594493e+01  5.4368930587866785e+01  5.4909091570296603e+01  5.5481631971516116e+01  5.6064095456568289e+01  5.6670186239027672e+01  5.7292056933658188e+01  5.7926692468434588e+01  5.8561032735007764e+01  5.9178652186024131e+01  5.9735614422514210e+01  6.0222676148391777e+01  6.0596596644054493e+01  6.0868034614478759e+01  6.1032436890464197e+01  6.1117673375665746e+01  6.1155066363391157e+01  6.1163913534648415e+01  6.1285070795572622e+01  6.1322256177148418e+01  6.1432053024532891e+01  6.1631570834514527e+01  6.1945114041404665e+01  6.2402930025898499e+01  6.3000015570892586e+01  6.3734965636100419e+01  6.4571186324880799e+01  6.5481181727351938e+01  6.6400345710621210e+01  6.7272267262723062e+01  6.8062150318476000e+01  6.8724330226127819e+01  6.9261459682604311e+01  6.9672095838605102e+01  6.9979805011512411e+01  7.0205670347373399e+01  7.0372232690959436e+01  7.0496693309876349e+01  7.0590640575465358e+01  7.0662165350124255e+01  7.0718801973600435e+01  7.0762021733226092e+01  7.0794047443775071e+01  7.0813546263431249e+01  7.0820886112947775e+01  7.0821122786093667e+01  7.0584364926204117e+01  7.0576016728924685e+01  7.0554751631352360e+01  7.0530772870110965e+01  7.0521701472853678e+01  7.0554404993209900e+01  7.0662988621181469e+01  7.0883126047194935e+01  7.1252391277578482e+01  7.1787223944231286e+01  7.2503674225250421e+01  7.3382235595801077e+01  7.4389372777927633e+01  7.5455692511068236e+01  7.6521406102303246e+01  7.7534242565521524e+01  7.8472582077989770e+01  7.9341360788990158e+01  8.0169340560104757e+01  8.0967093296802091e+01  8.1738607874820872e+01  8.2465677742579800e+01  8.3131424658482530e+01  8.3703127366645290e+01  8.4133834224637937e+01  8.4408832554373774e+01  5.8937231734869293e+01  5.9694975247886653e+01  6.0521957332868517e+01  6.1383392037566040e+01  6.2260705281262211e+01  6.3158508651949958e+01  6.4099211025399086e+01  6.5104133188070691e+01  6.6191185964598660e+01  6.7333142618612158e+01  6.8517533642936129e+01  6.9724940666904430e+01  7.0910796605857584e+01  7.2061480626505372e+01  7.3164961252432960e+01  7.4214177356710437e+01  7.5197071336465413e+01  7.6111086961103084e+01  7.6929435921213354e+01  7.7627698819534004e+01  7.8147933453786507e+01  7.8468612631705270e+01  7.8548387888954721e+01  7.8374857094960916e+01  7.7933903663294586e+01  7.7259465822584758e+01  7.6383185752962291e+01  7.5361515748410540e+01  7.4271556247893088e+01  7.3172924591750942e+01  7.2106701279616630e+01  7.1054328059961406e+01  7.0031343468685279e+01  6.9009426118283770e+01  6.7966676644555392e+01  6.6910975661545805e+01  6.5833466932307999e+01  6.4779561887436500e+01  6.3748040020911908e+01  6.2772118670218390e+01  6.1845808627174662e+01  6.0977013255972651e+01  6.0164323942673434e+01  5.9425685059392649e+01  5.8760583081492243e+01  5.8199606861848508e+01  5.7772722849221068e+01  5.7499599612332212e+01  5.7409577713126104e+01  5.7515205107657067e+01  5.7818083621404277e+01  5.8302082485206775e+01  8.5590614912393661e+01  6.1576500750504721e+01  5.2389337895200306e+01  7.0677614588752419e+01  8.6295777725110085e+01  6.1278789420295887e+01  5.1905318556242442e+01  7.0775463018227370e+01  6.1616991192955275e+01  7.3191470876419388e+01  7.9983400815100410e+01  6.3931628486655725e+01  5.6255272104370846e+01  6.9743269294664813e+01  8.4875828408588234e+01  7.5482600083717699e+01  5.2883243146320346e+01  6.6427527201402299e+01  6.1853046959502940e+01  5.7510410532037085e+01  7.0604762582517267e+01  7.0536532265366304e+01  5.4788151229722295e+01  7.0170375857061430e+01  8.4236315664591004e+01  6.3834886551377650e+01  7.0491874650980080e+01  6.7178057765961469e+01  7.8265790942767055e+01  6.2142781479738041e+01  5.9671397558277150e+01  8.2247787607320404e+01  5.3332994561061788e+01  6.2997796752949775e+01  5.7077125392567950e+01  7.3586052639621528e+01  6.2693421797000738e+01  7.1397604199062016e+01  7.8903418570165442e+01  6.1401380268990373e+01  6.4697437552940798e+01  5.7078803708607694e+01  7.4530719075714828e+01  6.9461950899496003e+01  6.1330380988883199e+01  7.9699734820514081e+01  7.0601911044848734e+01  6.1786329204537083e+01  8.5114745924091608e+01  5.2751464565011254e+01  7.3766218240097416e+01  5.6498403795176920e+01  6.5031569819374951e+01  6.2691047363735052e+01  7.0455019227840168e+01  8.0977989057083860e+01  6.8884692998974373e+01  7.8883041817161072e+01  6.0479607639074104e+01  7.3711276839073534e+01  6.1280821524143391e+01  5.8399258825997123e+01  7.7443768513811719e+01  7.3613649658353012e+01  6.1223240967954297e+01  6.1274637476010099e+01  8.1012236591267566e+01  6.8512330148458048e+01  7.1870027567640349e+01  5.6173627703267847e+01  6.3030211512589148e+01  6.8445781981603361e+01  7.6808908647084380e+01  7.7240571616895551e+01  5.8438487904617887e+01  5.8776662425553312e+01  6.8068385698440281e+01  5.5593747672769886e+01  6.3834396105884210e+01  5.9814142768085254e+01  7.3758489279926636e+01  7.5630815190183625e+01  6.5481146049867576e+01  6.5709880584003471e+01  7.2180892547361182e+01  5.3966292175877896e+01  5.4037332780742240e+01  6.2489373817531956e+01  8.3501277340122044e+01  7.0569340360264576e+01  6.2371379933945185e+01  7.0268234561773269e+01  8.3126873690943597e+01  7.0432888725294276e+01  6.1994529225897772e+01  6.2594975900269333e+01  5.3186832480092214e+01  8.4438715011931478e+01  6.1544547041641316e+01  5.2290058437435263e+01  8.5738566038402155e+01  7.0683943089434152e+01  6.2750538480804600e+01  5.5550129680636829e+01  7.2808830445759241e+01  5.6848503962059119e+01  5.9587633055246059e+01  6.7500581461003307e+01  8.2085975518426878e+01  6.2077866012472271e+01  7.8089130115841485e+01  7.0466166003042687e+01  7.0480609938780304e+01  8.4498248870283760e+01  5.3203213103423771e+01  7.1106330756334074e+01  7.9870101844338919e+01  6.1141002600213568e+01  5.4959297205390897e+01  7.9231656887565293e+01  7.0161077698116856e+01  6.6436929727961640e+01  6.6391891503275971e+01  6.4042041047167643e+01  7.5124705211098103e+01  5.7834101465879002e+01  7.5889676702083761e+01  5.7503820283469160e+01  6.2016151985199670e+01  6.3498087177484194e+01  7.0348195463059923e+01  6.5042021765694230e+01  5.4883273216609624e+01  6.9950439655386447e+01  6.9820158741408619e+01  7.8434008951074247e+01  6.7374805768785848e+01  8.2006768788435281e+01  6.2747139105075682e+01  5.9795559954493235e+01  7.4228226127174523e+01  8.4815544029980174e+01  6.3172352319428235e+01  6.1905608316478464e+01  7.0577803681312687e+01  6.0875273247404792e+01  7.0634924316384314e+01  6.1726254776736347e+01  6.3442081228597708e+01  5.2637610904806891e+01  7.4172352916272104e+01  6.3641940090554705e+01  6.3512775020999925e+01  7.3703293366236679e+01  8.5217044452955705e+01  5.7521923861889775e+01  5.7493872020525941e+01  5.6583781436708264e+01  7.2467645203243549e+01  7.8848030080695722e+01  7.0524583517416374e+01  7.8687209445555780e+01  7.0521009662888446e+01  7.3877525491890879e+01  7.3423200593385445e+01  6.1920066484855091e+01  6.2362974830732213e+01  6.0870455214861806e+01  6.1150072761258990e+01  6.1606361448870601e+01  5.2649826100247090e+01  7.0589365192479391e+01  5.2132601859732631e+01  6.1941897170696272e+01  8.4614217294223138e+01  6.1179023833521619e+01  8.6525058910802642e+01  6.1419759707728304e+01  6.1367603062291018e+01  8.5966068997644513e+01  5.1747754029809265e+01  7.0808947441911542e+01  5.3064894104810030e+01  7.0728414521425307e+01  7.0744171956458601e+01  7.8133762856809099e+01  7.2275918571821464e+01  6.9922612456289372e+01  7.9086070187848435e+01  6.1911332749010654e+01  5.3573356049822614e+01  6.8515592411129063e+01  8.0820217701655920e+01  5.5878819994482164e+01  5.6752400308312183e+01  6.2293239878323220e+01  5.2947604280218194e+01  6.0418096293184242e+01  7.2628258676701847e+01  7.0517278267336991e+01  7.9796403311691364e+01  8.3116157570683669e+01  6.9361054977248401e+01  7.2787837640172398e+01  6.4160848098314375e+01  6.3301965470916905e+01  6.0721942800585403e+01  5.7325829410527689e+01  5.7475328643203206e+01  5.2036577997911863e+01  8.6104661309234984e+01  8.3871786300651138e+01  5.5594799433004923e+01  6.8970536110956857e+01  8.0765484650764876e+01  6.2618271032013830e+01  7.1665535661816733e+01  5.7114836886321321e+01  6.2150962441907197e+01  6.4530516762885753e+01  7.6339355471791990e+01  5.8097953937637712e+01  6.4523704278255366e+01  8.6412296718385747e+01  6.1251257120266530e+01  5.1825799381610942e+01  7.0791886961047837e+01  6.4995693003501373e+01  5.8017125743229357e+01  7.4668521678739481e+01  7.0620453231095809e+01  7.0646030261567716e+01  6.1711269798542055e+01  6.1674536546342097e+01  6.6304723760837561e+01  8.5019828658091313e+01  8.4692602359951252e+01  8.5355757266921955e+01  7.5166094037442733e+01  7.4953998566822705e+01  8.3988270399958679e+01  6.2362037090593837e+01  7.0488230461435464e+01  7.0319010615596355e+01  6.2384547201964352e+01  6.5642866538594504e+01  6.4415813064710647e+01  7.6738151366394618e+01  5.8415242319392988e+01  5.2502993133709552e+01  5.7313614410980463e+01  5.6708863240875779e+01  7.1012726041115144e+01  6.1176426228781395e+01  6.2767468399787781e+01  7.3799089488393548e+01  7.3692580074394471e+01  6.0531624347008467e+01  6.0955168000069484e+01  7.6555738998479328e+01  7.7052153408499592e+01  6.5734513639782364e+01  5.4418811732049811e+01  6.1331957769597174e+01  6.8260465451940917e+01  7.8927060653721796e+01  6.6444908822530977e+01  8.1506934260339634e+01  6.8145443103249875e+01  6.9142759370737593e+01  6.9911910849816721e+01  7.9348666068899533e+01  8.0215813673675925e+01  6.9393516751208523e+01  6.0057481434241772e+01  6.0468236642018788e+01  7.9393829921336021e+01  7.0270654900418549e+01  7.8671449647737745e+01  8.1307907187336170e+01  6.8558540344804982e+01  7.0864799182246003e+01  6.1031222314040200e+01  5.9095345385159007e+01  5.9210738684268200e+01  7.4823481302991084e+01  7.4629287362566984e+01  8.2855976587281489e+01  5.7082271481736974e+01  5.6833220516878235e+01  5.6384816259014940e+01  7.6086404654204273e+01  5.8085233707143871e+01  6.1540540966614373e+01  7.5959945068569766e+01  6.2629241427025484e+01  6.3128102539612136e+01  6.4348808874393384e+01  7.3709377417647161e+01  7.3463265637144730e+01  6.5591477718929156e+01  6.7256942873685773e+01  5.3016131576282177e+01  8.3823448078925651e+01  6.2708955621687181e+01  7.2082508444317412e+01  5.4113124009851020e+01  5.3620076296457420e+01  6.3425216301011815e+01  6.3036909934636284e+01  6.2790511594965331e+01  7.0052133283334740e+01  7.7305995888665734e+01  7.7705910140884242e+01  5.8914908316336358e+01  5.9144091146972933e+01  6.4980586535111385e+01  7.0891971985679831e+01  7.3276258601946594e+01  6.9545734413510019e+01  6.2379781770093672e+01  5.7572438637325448e+01  6.1985673977234590e+01  7.0544210747181879e+01  7.1549729478961581e+01  5.1692638046845722e+01  6.1143774944978304e+01  8.6605826120542261e+01  7.0821085222163390e+01  7.3877995986422221e+01  6.9119754724483769e+01  7.7567123577478839e+01  6.3364479779758518e+01  5.7886573533441940e+01  6.2586269717279983e+01  7.3568912398265880e+01  7.3845443046059231e+01  7.8267873730637632e+01  6.3673716403331838e+01  5.4504444285353209e+01  5.4184550767378461e+01  5.3727611941657031e+01  5.4458314128961540e+01  5.9176937407506756e+01  7.7723665599820194e+01  7.1791807593485188e+01  6.1233371687499002e+01  6.1181962037350225e+01  6.1341198088102566e+01  5.8851078858032530e+01  5.8139140760834366e+01  7.3583853497387892e+01  7.3289306634871792e+01  8.2613512853584297e+01  7.8537944141955776e+01  6.4772198159724155e+01  8.3713733825195149e+01  7.0204101880604583e+01  6.6428518065847044e+01  6.2052327328760697e+01  8.4717390674997077e+01  7.4644500580681537e+01  5.6211485346330790e+01  5.6150190712485518e+01  5.2892834114708783e+01  6.9698606934880104e+01  8.1698923471936084e+01  6.7857760995231203e+01  7.0127181150125665e+01  7.0315134737578489e+01  7.0399265857636152e+01  7.5995057945778882e+01  6.0098850674160580e+01  8.5398542190075617e+01  5.3519925709341805e+01  7.7988834094584817e+01  6.7423910008408043e+01  7.0611669826768292e+01  6.1783678858638929e+01  5.6657645930875944e+01  6.5609847254780604e+01  7.8386239442079599e+01  5.9985091472456759e+01  8.0586889656392827e+01  6.1259291017597292e+01  5.3006976597394669e+01  7.0500721359758941e+01  6.7421676760653980e+01  7.7410849563254303e+01  6.2247882526456337e+01  7.3654405937368836e+01  6.1181273653174671e+01  7.0812312271226958e+01  8.6548802401918834e+01  5.1731054903220368e+01  6.8946739116958639e+01  6.3066599499780963e+01  5.3945897184827807e+01  6.2860602820770040e+01  7.0363492544547881e+01  6.7193001209719668e+01  6.2174200979885732e+01  5.9345571959902585e+01  8.4182154400637884e+01  7.0601001234033703e+01  7.0473065587217420e+01  6.9521795841010118e+01  6.3378980252645860e+01  6.5636008090413455e+01  6.6701156287291482e+01  7.0566013220316322e+01  6.2044116036506090e+01  7.0590235590561448e+01  6.2305258248980508e+01  7.2494632136521318e+01  8.0074739015265123e+01  7.1557162204667421e+01  5.5318730925097761e+01  8.0406654016839028e+01  6.1517056260092950e+01  5.5111795838924458e+01  5.6028628735315031e+01  5.5964866201181657e+01  6.4663109027903829e+01  6.1474962044413566e+01  5.3158812934009340e+01  7.3244067309549166e+01  8.1531023834296647e+01  6.7723763795966164e+01  6.1686310407752465e+01  5.7378525390383949e+01  7.1271625700943886e+01  7.0404201117992102e+01  5.2763752482409522e+01  7.9631758427539438e+01  6.9459216952081022e+01  7.3706760504752353e+01  6.1266001083886501e+01  7.3810261972539337e+01  7.2930105542960220e+01  8.2405535050420312e+01  6.1909487667652861e+01  7.0559414983597378e+01  7.0531826514199281e+01  6.2032238230150163e+01  6.1903661223997069e+01  6.1898134941200162e+01  5.2907251132171226e+01  8.5095439248839241e+01  6.9271134100895651e+01  7.9520918959426936e+01  6.1135498686295840e+01  7.2973382088530485e+01  7.1330883396033116e+01  6.8418984639360474e+01  7.4623385828067256e+01  7.8651657438967973e+01  8.0426622707525027e+01  6.2521824420238140e+01  7.0708970662191192e+01  6.1512205862680325e+01  5.4639505379339127e+01  7.0638844185928434e+01  6.3046844315995529e+01  8.3449603260740588e+01  6.2327632738888973e+01  8.2733601659640627e+01  8.3225155900651430e+01  5.3361474114597023e+01  5.3152312068840011e+01  8.4490291679642667e+01  8.4524930041629375e+01  7.6888856577353053e+01  6.3350809889886818e+01  6.1822046905783630e+01  6.2572769841397175e+01  6.3252814013627031e+01  6.1944082557483327e+01  6.4444910260252243e+01  5.2597499071811114e+01  6.0802669473859623e+01  6.4698471082127341e+01  7.8911357548756257e+01  7.6643832711666079e+01  6.2935219492810333e+01  6.0536092281337140e+01  6.0998255964948441e+01  6.2764183719145670e+01  5.6845358103199310e+01  7.8361708192324031e+01  7.4103117136387397e+01  7.0607184602007862e+01  7.1360090593487129e+01  7.1082314184150249e+01  7.9450146383611468e+01  5.2258582276011438e+01  8.5780950268819737e+01  8.5612340630087317e+01  8.5629217848660943e+01  5.2421600794563901e+01  5.2163503742324004e+01  5.4815012934693350e+01  6.9527846991937793e+01  5.5433028005460507e+01  7.2712396607961864e+01  5.7094726923647997e+01  6.1663735459271500e+01  6.1572254484297730e+01  7.0646653373685780e+01  7.0702285874467961e+01  7.0678363639103736e+01  6.1128034796878197e+01  8.5924067810308074e+01  7.0718113217911480e+01  6.1448269778757577e+01  5.3521478939351042e+01  7.2416438933638943e+01  6.1905015028656912e+01  7.1025718564617051e+01  7.9315574127133701e+01  7.0751665830110440e+01  6.1970449041603416e+01  7.0585349121775963e+01  5.8570096492627613e+01  5.5831926998287301e+01  5.5898503677236079e+01  5.5094225400523989e+01  8.1309275824656041e+01  6.1502914654852027e+01  8.4323751436086951e+01  5.5386387143497224e+01  7.0423754380816987e+01  6.2165228543844968e+01  7.1777020180167469e+01  7.2329017021714094e+01  5.2338037677893375e+01  6.2256485013423536e+01  8.4283180673315442e+01  5.6315128529119022e+01  6.1151087010819261e+01  5.8334214034849190e+01  7.7878326737826058e+01  6.8074794154847510e+01  5.9883552098536590e+01  6.2032019863260274e+01  6.0367231752894909e+01  6.2702244474265683e+01  8.1574903410068316e+01  7.5721679573571819e+01  6.6863408822140968e+01  6.3616179834133021e+01  6.2673944205786860e+01  6.3788805949417103e+01  6.4141229172410434e+01  6.1376387834985898e+01  6.9820045731583392e+01  7.0539985981577715e+01  6.7254777782913706e+01  6.1971487803914350e+01  7.0582027941091425e+01  6.2273652004521281e+01  7.9645334137059777e+01  7.0055423524047697e+01  7.3889044469603050e+01  7.3787396815957507e+01  7.4375820393569398e+01  6.3251860339238249e+01  6.4061411232464778e+01  5.7034485383436149e+01  5.7108522362437945e+01  5.6713889949778952e+01  6.5383109467844648e+01  5.3129440391710766e+01  6.1913851326834504e+01  6.6720157451414408e+01  8.4365039253504605e+01  8.4840420230606910e+01  8.2588220506899773e+01  6.6347225786499493e+01  6.8144063284759454e+01  6.7453484676368120e+01  6.2539765910355776e+01  5.9491312263484232e+01  8.1888671749063391e+01  7.7952545711978246e+01  5.3206785450720027e+01  7.4436686067930495e+01  7.5312307524670459e+01  6.2759894157760307e+01  8.1236408283418257e+01  5.8042738029576363e+01  7.5552766950749827e+01  5.7720259566804906e+01  7.5700145571923002e+01  6.3786803421995280e+01  6.4328534353246198e+01  6.0037767419415999e+01  7.8414234807086046e+01  5.9777920486330935e+01  5.7576055060469720e+01  6.3603743737754925e+01  6.2888207970299611e+01  7.8519949783191436e+01  6.1633086297684741e+01  6.6468010164274560e+01  7.4478457537938837e+01  6.6543349041989018e+01  5.9192297616679021e+01  7.5403025775691631e+01  5.2163323000402507e+01  8.5855750582206383e+01  7.43