<?xml version="1.0"?>
<VTKFile type="UnstructuredGrid"  version="0.1"  >
<UnstructuredGrid>
<Piece  NumberOfPoints="2331" NumberOfCells="4248">
<Points>
<DataArray  type="Float64"  NumberOfComponents="3"  format="ascii">0 0.3 0  0 0 0  0.04999999999999999 0 0  0.0514582251803892 0.02410733605106462 0  0.0558116365147896 0.04786313285751154 0  0.06299675146291706 0.07092097740850717 0  0.07290879486935808 0.09294463440875382 0  0.08540322682126872 0.1136129493462312 0  0.1002978503657798 0.132624531648159 0  0.117375468351841 0.1497021496342203 0  0.1363870506537689 0.1645967731787313 0  0.1570553655912463 0.177091205130642 0  0.1790790225914929 0.187003248537083 0  0.2021368671424885 0.1941883634852104 0  0.2258926639489354 0.1985417748196108 0  0.25 0.2 0  0.2741073360510646 0.1985417748196108 0  0.2978631328575116 0.1941883634852104 0  0.3209209774085071 0.187003248537083 0  0.3429446344087537 0.177091205130642 0  0.3636129493462312 0.1645967731787313 0  0.3826245316481591 0.1497021496342202 0  0.3997021496342202 0.132624531648159 0  0.4145967731787313 0.1136129493462312 0  0.427091205130642 0.09294463440875371 0  0.4370032485370829 0.07092097740850713 0  0.4441883634852104 0.04786313285751155 0  0.4485417748196108 0.02410733605106461 0  0.45 0 0  0.55 0 0  0.5514582251803892 0.02410733605106462 0  0.5558116365147896 0.04786313285751154 0  0.5629967514629171 0.07092097740850717 0  0.5729087948693581 0.09294463440875382 0  0.5854032268212688 0.1136129493462312 0  0.6002978503657798 0.132624531648159 0  0.617375468351841 0.1497021496342203 0  0.6363870506537689 0.1645967731787313 0  0.6570553655912463 0.177091205130642 0  0.6790790225914929 0.187003248537083 0  0.7021368671424885 0.1941883634852104 0  0.7258926639489354 0.1985417748196108 0  0.75 0.2 0  0.7741073360510646 0.1985417748196108 0  0.7978631328575116 0.1941883634852104 0  0.8209209774085071 0.187003248537083 0  0.8429446344087537 0.177091205130642 0  0.8636129493462312 0.1645967731787313 0  0.8826245316481591 0.1497021496342202 0  0.8997021496342202 0.132624531648159 0  0.9145967731787312 0.1136129493462312 0  0.927091205130642 0.09294463440875371 0  0.9370032485370829 0.07092097740850713 0  0.9441883634852104 0.04786313285751155 0  0.9485417748196108 0.02410733605106461 0  0.95 0 0  1 0 0  1 0.3 0  0.9758926639489353 0.3014582251803892 0  0.9521368671424885 0.3058116365147896 0  0.9290790225914928 0.3129967514629171 0  0.9070553655912461 0.3229087948693581 0  0.8863870506537688 0.3354032268212687 0  0.867375468351841 0.3502978503657798 0  0.8502978503657798 0.367375468351841 0  0.8354032268212687 0.3863870506537689 0  0.822908794869358 0.4070553655912464 0  0.8129967514629171 0.4290790225914929 0  0.8058116365147896 0.4521368671424885 0  0.8014582251803892 0.4758926639489354 0  0.8 0.4999999999999999 0  0.8014582251803892 0.5241073360510646 0  0.8058116365147896 0.5478631328575115 0  0.8129967514629171 0.5709209774085071 0  0.8229087948693581 0.5929446344087538 0  0.8354032268212688 0.6136129493462312 0  0.8502978503657798 0.632624531648159 0  0.867375468351841 0.6497021496342202 0  0.8863870506537689 0.6645967731787313 0  0.9070553655912463 0.677091205130642 0  0.9290790225914929 0.6870032485370829 0  0.9521368671424885 0.6941883634852104 0  0.9758926639489354 0.6985417748196108 0  1 0.7 0  1 1 0  0.95 1 0  0.9485417748196108 0.9758926639489353 0  0.9441883634852104 0.9521368671424885 0  0.9370032485370829 0.9290790225914928 0  0.927091205130642 0.9070553655912463 0  0.9145967731787312 0.8863870506537688 0  0.8997021496342201 0.8673754683518409 0  0.882624531648159 0.8502978503657798 0  0.863612949346231 0.8354032268212686 0  0.8429446344087537 0.822908794869358 0  0.8209209774085071 0.8129967514629171 0  0.7978631328575114 0.8058116365147896 0  0.7741073360510646 0.8014582251803892 0  0.75 0.8 0  0.7258926639489353 0.8014582251803892 0  0.7021368671424885 0.8058116365147896 0  0.6790790225914928 0.8129967514629171 0  0.6570553655912461 0.8229087948693581 0  0.6363870506537688 0.8354032268212688 0  0.617375468351841 0.8502978503657798 0  0.6002978503657798 0.867375468351841 0  0.5854032268212687 0.8863870506537689 0  0.572908794869358 0.9070553655912463 0  0.5629967514629171 0.9290790225914929 0  0.5558116365147896 0.9521368671424885 0  0.5514582251803892 0.9758926639489355 0  0.55 0.9999999999999999 0  0.45 0.9999999999999999 0  0.4485417748196108 0.9758926639489353 0  0.4441883634852104 0.9521368671424885 0  0.4370032485370829 0.9290790225914928 0  0.427091205130642 0.9070553655912463 0  0.4145967731787313 0.8863870506537688 0  0.3997021496342201 0.8673754683518409 0  0.382624531648159 0.8502978503657798 0  0.363612949346231 0.8354032268212686 0  0.3429446344087536 0.822908794869358 0  0.3209209774085071 0.8129967514629171 0  0.2978631328575115 0.8058116365147896 0  0.2741073360510646 0.8014582251803892 0  0.25 0.8 0  0.2258926639489353 0.8014582251803892 0  0.2021368671424885 0.8058116365147896 0  0.1790790225914928 0.8129967514629171 0  0.1570553655912462 0.8229087948693581 0  0.1363870506537688 0.8354032268212688 0  0.117375468351841 0.8502978503657798 0  0.1002978503657797 0.867375468351841 0  0.08540322682126869 0.8863870506537689 0  0.07290879486935797 0.9070553655912463 0  0.06299675146291703 0.9290790225914929 0  0.05581163651478957 0.9521368671424885 0  0.0514582251803892 0.9758926639489355 0  0.04999999999999999 0.9999999999999999 0  0 1 0  -0 0.7000000000000001 0  0.0241073360510646 0.6985417748196108 0  0.04786313285751161 0.6941883634852104 0  0.07092097740850711 0.6870032485370829 0  0.09294463440875372 0.677091205130642 0  0.1136129493462312 0.6645967731787312 0  0.1326245316481591 0.6497021496342202 0  0.1497021496342202 0.632624531648159 0  0.1645967731787313 0.6136129493462312 0  0.177091205130642 0.5929446344087537 0  0.187003248537083 0.5709209774085071 0  0.1941883634852104 0.5478631328575115 0  0.1985417748196108 0.5241073360510646 0  0.2 0.5 0  0.1985417748196108 0.4758926639489353 0  0.1941883634852104 0.4521368671424885 0  0.1870032485370829 0.4290790225914928 0  0.177091205130642 0.4070553655912463 0  0.1645967731787313 0.3863870506537688 0  0.1497021496342202 0.3673754683518409 0  0.132624531648159 0.3502978503657798 0  0.113612949346231 0.3354032268212686 0  0.09294463440875361 0.322908794869358 0  0.07092097740850711 0.3129967514629171 0  0.04786313285751148 0.3058116365147896 0  0.02410733605106464 0.3014582251803892 0  0.6985417748196108 0.5241073360510646 0  0.7 0.5 0  0.6985417748196108 0.4758926639489353 0  0.6941883634852104 0.4521368671424885 0  0.6870032485370829 0.4290790225914928 0  0.677091205130642 0.4070553655912463 0  0.6645967731787312 0.3863870506537688 0  0.6497021496342201 0.3673754683518409 0  0.632624531648159 0.3502978503657798 0  0.613612949346231 0.3354032268212686 0  0.5929446344087537 0.322908794869358 0  0.5709209774085071 0.3129967514629171 0  0.5478631328575114 0.3058116365147896 0  0.5241073360510646 0.3014582251803892 0  0.4999999999999999 0.3 0  0.4758926639489353 0.3014582251803892 0  0.4521368671424885 0.3058116365147896 0  0.4290790225914928 0.3129967514629171 0  0.4070553655912462 0.3229087948693581 0  0.3863870506537688 0.3354032268212687 0  0.367375468351841 0.3502978503657798 0  0.3502978503657798 0.367375468351841 0  0.3354032268212687 0.3863870506537689 0  0.322908794869358 0.4070553655912464 0  0.3129967514629171 0.4290790225914929 0  0.3058116365147896 0.4521368671424885 0  0.3014582251803892 0.4758926639489354 0  0.3 0.4999999999999999 0  0.3014582251803892 0.5241073360510646 0  0.3058116365147896 0.5478631328575115 0  0.3129967514629171 0.5709209774085071 0  0.3229087948693581 0.5929446344087538 0  0.3354032268212687 0.6136129493462312 0  0.3502978503657798 0.632624531648159 0  0.367375468351841 0.6497021496342202 0  0.3863870506537689 0.6645967731787313 0  0.4070553655912463 0.677091205130642 0  0.4290790225914929 0.6870032485370829 0  0.4521368671424885 0.6941883634852104 0  0.4758926639489354 0.6985417748196108 0  0.4999999999999999 0.7 0  0.5241073360510646 0.6985417748196108 0  0.5478631328575116 0.6941883634852104 0  0.5709209774085071 0.6870032485370829 0  0.5929446344087537 0.677091205130642 0  0.6136129493462312 0.6645967731787312 0  0.6326245316481591 0.6497021496342202 0  0.6497021496342202 0.632624531648159 0  0.6645967731787312 0.6136129493462312 0  0.677091205130642 0.5929446344087537 0  0.6870032485370829 0.5709209774085071 0  0.6941883634852104 0.5478631328575115 0  0 0.15 0  1 0.15 0  1 0.85 0  0 0.8500000000000001 0  0 0.075 0  1 0.075 0  1 0.925 0  0 0.925 0  0.5 0.8127595604293815 0  0.5069440078039168 0.190422209288238 0  0.25 0.3127595604293815 0  0.756944007803917 0.3095777907117619 0  0.756944007803917 0.6904222092882382 0  0.25 0.6872404395706185 0  0 0.225 0  0.4255768646051012 0.2241073097134061 0  1 0.7749999999999999 0  0.6773391559270888 0.2766774022734219 0  1 0.225 0  0.6755768646051011 0.7241073097134062 0  0 0.7750000000000001 0  0.5818971135297744 0.2287925518358889 0  0.8318971135297746 0.728792551835889 0  0.1659156081861886 0.7301636995921477 0  0.08376842746533225 0.2299656297760495 0  0.4236002201977974 0.7746535834185855 0  0.0840843918138115 0.7698363004078523 0  0.3340843918138113 0.7301636995921477 0  0.3340843918138114 0.2698363004078523 0  0.9159156081861887 0.2301636995921477 0  0.5840843918138116 0.7698363004078522 0  0.1659156081861887 0.2698363004078523 0  0.9162315725346678 0.7700343702239506 0  0.8340843918138114 0.2698363004078523 0  0.75 0.6146645247768686 0  0.5 0.1125158665330878 0  0.75 0.3874841334669124 0  0.2504983345544904 0.6122915843562002 0  0.2504983345544902 0.3877084156437999 0  0.5 0.8879783056303169 0  0.7005361650220154 0.3333055947145943 0  0.70416808765371 0.6599554817221275 0  0.449930214263529 0.1678187287522426 0  0.2247310981387008 0.7415600637745463 0  0.5155081196221678 0.7563797802146907 0  0.2752689018612993 0.2584399362254537 0  0.05605196690611226 0.8246131191226815 0  0.943948033093887
[...]
<PointData  Scalars="Temperature"> 
<DataArray  type="Float64"  Name="Temperature"  format="ascii">1.2060732445403558e+02  1.2864014108091877e+02  1.2862675365911204e+02  1.2844193134772374e+02  1.2792547929886905e+02  1.2712357243126729e+02  1.2605353567660664e+02  1.2472918294407481e+02  1.2316505840319300e+02  1.2134057984704529e+02  1.1920575375538333e+02  1.1678337145418675e+02  1.1414003366637699e+02  1.1132794240605966e+02  1.0839672717692520e+02  1.0541395869547098e+02  1.0238722209882017e+02  9.9310051786838585e+01  9.6249440271147364e+01  9.3196370775852927e+01  9.0299585413080365e+01  8.7651134712358214e+01  8.5351729385063791e+01  8.3535886980457036e+01  8.2190964477422952e+01  8.1301017779707109e+01  8.0763495534832998e+01  8.0500730715120909e+01  8.0425584539453325e+01  7.9947752071407990e+01  7.9854814203777096e+01  7.9552137966082498e+01  7.8949310166893980e+01  7.7965217217801211e+01  7.6488210845007828e+01  7.4505961845667727e+01  7.2060192737166204e+01  6.9236918617456766e+01  6.6169836850027181e+01  6.3034633217986269e+01  5.9996699208048220e+01  5.7188141260893538e+01  5.4676511477293225e+01  5.2478640869100879e+01  5.0582218452130178e+01  4.8979701979089036e+01  4.7609886838721486e+01  4.6458514437865112e+01  4.5505811126779818e+01  4.4710824902013556e+01  4.4056890390318472e+01  4.3516112335404820e+01  4.3085673992809660e+01  4.2765538976838727e+01  4.2559981728827928e+01  4.2486643339162697e+01  4.2480705597608470e+01  4.5537162824062079e+01  4.5665813268777846e+01  4.6037105675590404e+01  4.6611618238972511e+01  4.7310639659223853e+01  4.8034666513365750e+01  4.8655610384196770e+01  4.9062101353081260e+01  4.9156760853347045e+01  4.8905920548284861e+01  4.8259159137282715e+01  4.7311762313209840e+01  4.6150221030570599e+01  4.4894544515831129e+01  4.3660941951594623e+01  4.2518663812733514e+01  4.1469417469466748e+01  4.0510609137665995e+01  3.9587754776428575e+01  3.8681166729689707e+01  3.7801830291942693e+01  3.6943452602652549e+01  3.6158868171926287e+01  3.5485034911766469e+01  3.4971174136317856e+01  3.4652946045104784e+01  3.4541155716576426e+01  3.2199474155655821e+01  3.2203075981515227e+01  3.2255721610241089e+01  3.2403654492581623e+01  3.2634863673846695e+01  3.2947363557684419e+01  3.3340077166809650e+01  3.3816314275737575e+01  3.4386410093772746e+01  3.5059187459905111e+01  3.5848354490903375e+01  3.6750978228533810e+01  3.7745244406422273e+01  3.8836481171198770e+01  3.9992367908735467e+01  4.1245582131091581e+01  4.2577913307208334e+01  4.3977801062281777e+01  4.5404952504059025e+01  4.6809407721439428e+01  4.8082256400858000e+01  4.9194113621370008e+01  5.0041020965035010e+01  5.0647089541267036e+01  5.1002903690463640e+01  5.1176469778990324e+01  5.1246449476701294e+01  5.1260987221634608e+01  5.1552003657377469e+01  5.1649313343994663e+01  5.1935023213257331e+01  5.2448310588878812e+01  5.3247168164989844e+01  5.4403568982026776e+01  5.5904803991156278e+01  5.7747599556449480e+01  5.9839932241523535e+01  6.2112676525075287e+01  6.4398820056194623e+01  6.6550013077682621e+01  6.8467682188630064e+01  7.0034428383128983e+01  7.1251166117661711e+01  7.2116738863599394e+01  7.2704999612482865e+01  7.3080272771805667e+01  7.3310145857044162e+01  7.3449228636204978e+01  7.3530249259952313e+01  7.3575082501268028e+01  7.3600756857157847e+01  7.3614369399179125e+01  7.3622012899815616e+01  7.3625935562595018e+01  7.3627302750023787e+01  7.3627417196416175e+01  7.3771480746223659e+01  7.3782614042881818e+01  7.3822389623170238e+01  7.3911109565928840e+01  7.4089054346911723e+01  7.4414598383358239e+01  7.4970845927517104e+01  7.5844301793343675e+01  7.7134508965129257e+01  7.8884416385451686e+01  8.1142881843266863e+01  8.3858015726268775e+01  8.6945253516286002e+01  9.0207390167119911e+01  9.3478392798851061e+01  9.6613772166676569e+01  9.9564775261920460e+01  1.0236446802297652e+02  1.0511355211354272e+02  1.0783660401425588e+02  1.1053839584063286e+02  1.1313589209214830e+02  1.1554908063022276e+02  1.1764257153686022e+02  1.1923130691843888e+02  1.2025010539969041e+02  4.3917450843297026e+01  4.5141137066337350e+01  4.6555192942304714e+01  4.8124323860638881e+01  4.9840546066740437e+01  5.1750231631923619e+01  5.3923111601626509e+01  5.6404945940610013e+01  5.9242713992721420e+01  6.2345654762422235e+01  6.5672403075128940e+01  6.9160684160038528e+01  7.2682504842499156e+01  7.6200901302174827e+01  7.9675787003569539e+01  8.3093412573109845e+01  8.6401845715450492e+01  8.9579278715405295e+01  9.2509365102332438e+01  9.5092647132181455e+01  9.7107819717042389e+01  9.8469620486668461e+01  9.9025452878817674e+01  9.8730000294685482e+01  9.7546020412084204e+01  9.5589945415372867e+01  9.2979803576067383e+01  8.9910147924843443e+01  8.6635895833268705e+01  8.3357150243431320e+01  8.0216677547851333e+01  7.7179325764176696e+01  7.4298283883274038e+01  7.1492665284899459e+01  6.8703969005400211e+01  6.5943253356327332e+01  6.3171309514351073e+01  6.0497138154619044e+01  5.7910553595797943e+01  5.5489520763406674e+01  5.3214071562351691e+01  5.1100297554937868e+01  4.9137147686610980e+01  4.7358939907540865e+01  4.5749635060598813e+01  4.4367886332864259e+01  4.3263115602647552e+01  4.2470073763480826e+01  4.2033857766082960e+01  4.1973755899460812e+01  4.2290446427323936e+01  4.2953522696417323e+01  1.2472913164928354e+02  4.4013575400957549e+01  3.3323205263524983e+01  7.3619733750921711e+01  1.2743823264817082e+02  4.2957281886628756e+01  3.2542772006231772e+01  7.3620343770502117e+01  5.2561442549812014e+01  7.9310897564407341e+01  1.0397517301345610e+02  5.2595279063627935e+01  4.0029916334973507e+01  7.3025054250139462e+01  1.2200575990176154e+02  8.7150002314508953e+01  3.4120669873455476e+01  5.9561424675006108e+01  4.5030961414098783e+01  4.2895007111349585e+01  7.3688877135766731e+01  7.1345400049331417e+01  3.7402363705729080e+01  7.3427204295995850e+01  1.1960803499400666e+02  5.8058792290214612e+01  7.3610023494433918e+01  6.6477895641835389e+01  9.7316274835833312e+01  4.6065194870781689e+01  4.7956061812911905e+01  1.1223055221987845e+02  3.4887474816728158e+01  4.9179525113807848e+01  4.1115314164950014e+01  8.0063015324030133e+01  5.0318528889946698e+01  7.7953585569575480e+01  1.0068492696925561e+02  5.1930007100890883e+01  5.5104251406894107e+01  4.1562653199759055e+01  8.3578545431361846e+01  7.1906199516928609e+01  5.1930896273625436e+01  1.0265026770817042e+02  7.3589358657959977e+01  4.4757653615573922e+01  1.2291850071333960e+02  3.3916611542576526e+01  8.1468703442937283e+01  4.0777429787913242e+01  5.5368215263998025e+01  5.5165751917020984e+01  7.4657436952782135e+01  1.0773522704453677e+02  7.1012628256249599e+01  9.9874646007208526e+01  4.9824896411973640e+01  8.0156927412276403e+01  4.7769934802219730e+01  4.3039302072820860e+01  9.6244801036130724e+01  8.4621786978889503e+01  5.1402450538687951e+01  5.1554604198224254e+01  1.0760520946474446e+02  6.9741828402279083e+01  7.5120502927929451e+01  3.9637842278136453e+01  4.9904389711713968e+01  6.5209290498709578e+01  9.1981714875457229e+01  9.3434414104747958e+01  4.5096343891505406e+01  4.5828556191452883e+01  6.4296928379232426e+01  3.8930447651979321e+01  5.1709049954165188e+01  4.5288596043919497e+01  8.0187360196140759e+01  9.0732645651093094e+01  6.2154232008607913e+01  6.2808149119766838e+01  7.6367386182516725e+01  3.5997620284916849e+01  3.6067897709259846e+01  5.4737849805520504e+01  1.1688702835402565e+02  7.3729819373295072e+01  4.6997933499398606e+01  7.3298359491215166e+01  1.1544712805011139e+02  7.3788032235547178e+01  4.5564933369325516e+01  4.7607189246081099e+01  3.4622295020666400e+01  1.2036468983794768e+02  4.3894499453719902e+01  3.3166054719709116e+01  1.2529820692581072e+02  7.3600898336089159e+01  4.9887485399529282e+01  3.8692084900909244e+01  7.7753948210833457e+01  4.1336490001738603e+01  4.7751506017343722e+01  6.7423988086991073e+01  1.1173040340549161e+02  4.5776556677519139e+01  9.6783756919100227e+01  7.4314448330579282e+01  7.3480183188268327e+01  1.2058874727356373e+02  3.4689427373912238e+01  7.6832086946858311e+01  1.0399586278428336e+02  5.1360710632707409e+01  3.7614142551860645e+01  1.0144618566701571e+02  7.4431708446476648e+01  5.9392769402013528e+01  5.9673366060522298e+01  5.8533947918116596e+01  8.6073053668469086e+01  4.3519832877618377e+01  8.8450261852354544e+01  4.2998215129591699e+01  5.3451722937056637e+01  5.7264469158084268e+01  7.0933454096698057e+01  5.5696656820254674e+01  3.7655974513184134e+01  6.9511710466460841e+01  7.2523595046882946e+01  9.7850465861447461e+01  6.6858725394652780e+01  1.1125975482051338e+02  4.8628424979492394e+01  4.8251851485755374e+01  8.2786161543006500e+01  1.2178183876999836e+02  4.9520624243711950e+01  4.5208888254925796e+01  7.3646665718394360e+01  5.0800485621535515e+01  7.3643472929986189e+01  4.4557574911693742e+01  5.0791716490778164e+01  3.3738874210221681e+01  8.2091064384205296e+01  5.2300812352256145e+01  5.2389912820173429e+01  8.0712472824225983e+01  1.2330208135986463e+02  4.1678000082653426e+01  4.1824881104901891e+01  4.0439735091976786e+01  8.1096726065077590e+01  1.0069782802656393e+02  7.5613899830743406e+01  9.9652073281305960e+01  7.3791865415647948e+01  8.0847949465332164e+01  7.9383722043975823e+01  4.8711345560827169e+01  4.9927387393927326e+01  5.0679571605574971e+01  5.1288949101092484e+01  5.2401864955680317e+01  3.3743969035493350e+01  7.3743435823427788e+01  3.2908877647675368e+01  4.5374022553777046e+01  1.2101763674538928e+02  4.2607006517685690e+01  1.2832261170687198e+02  4.3454741125308736e+01  4.3269405823735340e+01  1.2616937842366261e+02  3.2289668774599292e+01  7.3625407853154655e+01  3.4414069412474696e+01  7.3615886753211385e+01  7.3612891337650211e+01  9.8225538320949966e+01  8.0656917894700854e+01  7.3228214452907451e+01  1.0044845587679769e+02  5.3234927885561227e+01  3.5271854764013170e+01  6.9605601153303425e+01  1.0680076442930265e+02  3.9577180770712381e+01  4.0490689895396095e+01  5.4295687806966505e+01  3.4231397626882533e+01  4.9732509609254407e+01  7.7906659239935507e+01  7.5229084246620587e+01  1.0354429719871605e+02  1.1544016999716595e+02  6.7964324688906089e+01  7.7872395195175329e+01  5.2912321336969875e+01  5.1127872754496821e+01  5.0476397957635982e+01  4.2334585935675520e+01  4.2525693818417146e+01  3.2754819653614071e+01  1.2670294019614674e+02  1.1823702643173658e+02  3.8649640815457587e+01  7.1071320004462777e+01  1.0682882913632410e+02  4.7822218496918097e+01  7.4660066947839326e+01  4.1362392265797091e+01  4.6148307259549071e+01  5.4891610760095389e+01  9.0162920960100820e+01  4.4232163971938697e+01  5.9811084883839463e+01  1.2788762227334259e+02  4.2860328601556944e+01  3.2415109407634588e+01  7.3622183191462469e+01  6.0911680991022784e+01  4.2512901838846673e+01  8.4409972678921164e+01  7.3563993360865993e+01  7.3620624407841092e+01  4.4479825595761881e+01  4.4364887901322454e+01  6.4184319975956242e+01  1.2256149825605614e+02  1.2132105009458473e+02  1.2383259979402499e+02  8.5764914503325542e+01  8.5189705683852296e+01  1.1869192274776397e+02  5.4385314454863710e+01  7.4107365578897941e+01  7.3275850358842746e+01  4.6829879881932840e+01  5.7522134882657923e+01  5.3384361540241805e+01  9.1538421762107120e+01  4.4926630313756760e+01  3.3510981835289286e+01  4.1933254967924398e+01  4.0875345718387166e+01  7.2557742751079388e+01  5.1306652034657766e+01  4.9078215820594693e+01  8.0351989813077338e+01  8.0008408631950218e+01  4.6433917995459794e+01  4.7291010311158800e+01  9.3517829308691461e+01  9.5097037068195945e+01  5.7489580388801642e+01  3.6693244089844939e+01  5.1681661915464787e+01  6.4607478847423167e+01  9.9748723963817781e+01  6.4716787788143321e+01  1.0954944355845960e+02  6.8985962645214414e+01  7.1041547440816188e+01  7.2961284741648825e+01  1.0126577218171710e+02  1.0467064368902587e+02  7.1932451652150945e+01  4.8853208540804282e+01  4.9766932719802696e+01  1.0180316154157228e+02  7.3912171017099766e+01  9.9269379983831598e+01  1.0898784545652444e+02  7.0241898915019050e+01  7.5892733986887180e+01  5.1139360929116556e+01  4.4148121673634421e+01  4.4288455292917163e+01  8.8289277755555631e+01  8.7686391540234993e+01  1.1453199092433726e+02  4.2010692781679481e+01  4.1557339812041363e+01  4.0424982097041664e+01  8.9449572148574148e+01  4.4319017599441743e+01  5.2412691627053270e+01  8.8921940971926048e+01  5.4983645012081659e+01  5.6278924372487403e+01  5.3976410602898561e+01  8.1395971694594678e+01  8.0342288109346313e+01  5.6888386669904264e+01  6.1814158947733787e+01  3.4355434694450800e+01  1.1804774753835208e+02  4.9412526849460185e+01  7.5628095169785965e+01  3.6280325944191652e+01  3.5409956135174760e+01  5.1080735753269124e+01  4.9565619614147380e+01  4.8203001644644132e+01  7.2887614720268786e+01  9.3854829285305598e+01  9.5279309913227110e+01  4.6205344294483154e+01  4.6725901870038619e+01  6.0989353608790836e+01  7.2292538456416807e+01  7.9238585921570092e+01  6.8410724327043113e+01  4.6917147859270685e+01  4.1826055165680017e+01  4.5476991183890021e+01  7.3579210693405329e+01  7.4533682163725885e+01  3.2201297481344611e+01  4.2483493899182747e+01  1.2863451518701964e+02  7.3627373797591801e+01  8.1467982219328320e+01  6.7367681779112360e+01  9.4695626527641807e+01  5.6827136148232746e+01  4.3811798294828570e+01  4.7861548174581571e+01  7.9708292936281993e+01  8.0595359052597843e+01  9.8760675215894665e+01  5.1080098040557168e+01  3.6870393400751553e+01  3.6348979144683540e+01  3.5558301679493425e+01  3.6861117344926015e+01  4.6766873970977926e+01  9.5184921364088908e+01  7.8957289407421058e+01  5.1434289292906598e+01  5.1303284075048850e+01  5.1746666998301528e+01  4.6031323346238494e+01  4.2606762763482166e+01  8.4494887693961417e+01  8.3684084594150320e+01  1.1361367036304699e+02  9.8423612652074922e+01  6.0400901518412326e+01  1.1766054845268982e+02  7.4169514156764123e+01  6.4541513932379004e+01  4.9148842121279856e+01  1.2140862652103756e+02  8.3806248209477232e+01  3.9626145468035887e+01  3.9710282091152266e+01  3.4159604501462965e+01  7.3264047858534127e+01  1.1016622841497274e+02  6.8148939346376324e+01  7.3148565825434716e+01  7.3520124986246401e+01  7.3534251773081337e+01  9.1853939263781925e+01  4.5802975626612970e+01  1.2400003942509555e+02  3.5220324454097103e+01  9.7986638388279445e+01  6.2556525695712033e+01  7.3658599322157855e+01  4.4764881071966883e+01  4.0429089603730212e+01  5.7659885974367803e+01  9.8016941349213226e+01  4.8659147602386568e+01  1.0645573015885286e+02  4.7614187981818276e+01  3.4322462824013613e+01  7.3918250716745490e+01  6.2385294380521380e+01  9.6069032409489424e+01  4.6399057183313197e+01  8.0121786233992495e+01  4.2614864070524092e+01  7.3625817698809755e+01  1.2841433145387694e+02  3.2262923465752756e+01  7.0728327371386001e+01  5.0882939448248244e+01  3.5895496634276590e+01  4.8571804129879908e+01  7.3828701208786470e+01  6.1524109707352331e+01  4.6271668454644534e+01  4.7185104725165047e+01  1.1940888828881590e+02  7.4923276733457072e+01  7.3692783692017528e+01  7.2863929655265594e+01  5.0369931824291648e+01  6.2581265478153014e+01  6.5321471304005030e+01  7.3780027977816644e+01  4.5767224859813325e+01  7.3692719990982312e+01  4.9169103102815676e+01  7.7206351920589825e+01  1.0400441073544718e+02  7.8595658685148194e+01  3.8500493397583725e+01  1.0565693286580880e+02  5.2405486924427954e+01  3.8025166961011571e+01  3.9804254005277699e+01  3.9574833948275824e+01  5.4471085603612181e+01  5.2052673252995518e+01  3.4584790341210237e+01  7.8971623669600135e+01  1.0945426552323326e+02  6.7671152184680381e+01  5.2650024185469441e+01  4.1812454046107874e+01  7.7697181456768547e+01  7.3441259168154673e+01  3.3930165208343730e+01  1.0253919764821299e+02  7.2471029890012105e+01  8.0021524619671212e+01  5.1505759537681655e+01  8.0355955809517880e+01  7.8005935795951331e+01  1.1272894715415866e+02  4.5174060430439411e+01  7.3535431657525649e+01  7.3703968821050609e+01  4.5684880533128215e+01  4.5224867750373861e+01  4.5197191102229226e+01  3.4193200594955847e+01  1.2284086441881357e+02  6.7513804909594910e+01  1.0291887245976289e+02  5.1289463295243507e+01  7.8884578442958215e+01  7.3756004664359594e+01  6.5217854396676188e+01  8.4431832929325481e+01  9.9748617785297171e+01  1.0537407200941219e+02  4.7726896966071003e+01  7.3600448105667581e+01  4.3777489699715566e+01  3.7235416591006441e+01  7.5382206563516462e+01  5.6160980334529292e+01  1.1670815783003626e+02  4.6888582635624502e+01  1.1400216955795271e+02  1.1580094487970142e+02  3.4910656672313557e+01  3.4558822035354495e+01  1.2055444620727887e+02  1.2068879714228956e+02  9.2198610173385319e+01  5.6810974080142643e+01  4.8933191192023600e+01  4.9827801743587081e+01  5.6630332831223107e+01  5.3415621701821777e+01  5.3590069209886842e+01  3.3661201405506787e+01  5.0550874463466315e+01  6.0187366592081581e+01  1.0024255713035197e+02  9.3815942417182754e+01  4.9993451413929378e+01  4.6502359884889763e+01  5.0940738725146396e+01  5.5439008390551500e+01  4.0979444600231481e+01  9.8779612013442176e+01  8.1709641796290256e+01  7.3626663987817636e+01  7.7537014794593716e+01  7.6905329570475047e+01  1.0250365501725172e+02  3.3112084104632359e+01  1.2545861238906356e+02  1.2481328074605265e+02  1.2488164196474665e+02  3.3384284344557187e+01  3.2961646317322760e+01  3.7346401820173568e+01  7.1857214368310125e+01  3.8560878893904913e+01  8.1900906400530303e+01  4.0988049454844280e+01  4.4318280024121435e+01  4.3996530821238984e+01  7.3598781964478491e+01  7.3615760677307122e+01  7.3612847333838459e+01  5.1212396587689248e+01  1.2601008894708241e+02  7.3612108386115878e+01  4.3554970078198643e+01  3.5195842931324577e+01  7.6673110206743146e+01  5.3153605397522078e+01  7.3000082908356063e+01  1.0190855906116221e+02  7.6051401261862949e+01  4.5486233984505155e+01  7.3764000479905718e+01  4.3341658199614130e+01  3.9116821787797988e+01  3.9346166717131311e+01  3.7893031483859943e+01  1.0865806752480017e+02  5.2250668241091816e+01  1.1993002213135513e+02  3.8349716915068889e+01  7.3387117830074729e+01  4.6062247152407572e+01  7.9002952066612693e+01  7.6574627167664417e+01  3.3241434467071080e+01  5.4071280133641849e+01  1.1978462211549042e+02  4.0487057794767146e+01  4.2509112874363566e+01  4.4823865830962539e+01  9.5803272974884820e+01  6.8586066867598092e+01  4.5363025066524244e+01  5.3597460190941412e+01  4.9596752149693202e+01  5.0731641353761617e+01  1.0986454470067041e+02  9.0999280318129635e+01  6.5553409893336323e+01  5.2755410343681710e+01  4.8530988612731790e+01  5.1977377458006885e+01  5.3813328747798785e+01  5.1902119235088307e+01  7.2437724739616854e+01  7.4442928105351527e+01  6.6822353273882513e+01  4.5486536752978161e+01  7.3757192247134668e+01  4.6580918141297467e+01  1.0286949612950612e+02  7.4003120690983152e+01  8.1030957892030628e+01  8.0833229247983866e+01  8.2916154992963328e+01  4.9707331985914010e+01  5.8684738198478406e+01  4.1624674847893715e+01  4.1980175256213663e+01  4.1152182782700137e+01  5.6961689091871520e+01  3.4554485099876935e+01  4.5204878032560032e+01  6.0479479816600104e+01  1.2008852191043034e+02  1.2188027641889563e+02  1.1343031278935887e+02  5.9069334320056377e+01  6.9064457098755511e+01  6.7241859402385941e+01  4.9365377988159743e+01  4.7525066292492639e+01  1.1105602166857673e+02  9.6316565758149864e+01  3.4703751129092943e+01  8.3720222515041741e+01  8.6642114811759924e+01  4.8420102665163149e+01  1.0849802419008637e+02  4.3992500414520997e+01  8.7304674515775915e+01  4.3316355970361258e+01  8.7705481511328401e+01  5.7914783257361499e+01  5.9237984437891051e+01  4.8793453263386660e+01  9.7749291098094417e+01  4.8207955856951955e+01  4.3191627611426945e+01  5.2426641725275267e+01  5.0925248809669512e+01  9.8450451955042340e+01  5.2491021563127312e+01  5.9570022639318765e+01  8.7239584982084310e+01  6.0159916821570469e+01  4.4278956392399053e+01  8.7082274491642892e+01  3.2959151424213559e+01  1.2574607957817841e+02  8.27