<?xml version="1.0"?>
<VTKFile type="UnstructuredGrid"  version="0.1"  >
<UnstructuredGrid>
<Piece  NumberOfPoints="2331" NumberOfCells="4248">
<Points>
<DataArray  type="Float64"  NumberOfComponents="3"  format="ascii">0 0.3 0  0 0 0  0.04999999999999999 0 0  0.0514582251803892 0.02410733605106462 0  0.0558116365147896 0.04786313285751154 0  0.06299675146291706 0.07092097740850717 0  0.07290879486935808 0.09294463440875382 0  0.08540322682126872 0.1136129493462312 0  0.1002978503657798 0.132624531648159 0  0.117375468351841 0.1497021496342203 0  0.1363870506537689 0.1645967731787313 0  0.1570553655912463 0.177091205130642 0  0.1790790225914929 0.187003248537083 0  0.2021368671424885 0.1941883634852104 0  0.2258926639489354 0.1985417748196108 0  0.25 0.2 0  0.2741073360510646 0.1985417748196108 0  0.2978631328575116 0.1941883634852104 0  0.3209209774085071 0.187003248537083 0  0.3429446344087537 0.177091205130642 0  0.3636129493462312 0.1645967731787313 0  0.3826245316481591 0.1497021496342202 0  0.3997021496342202 0.132624531648159 0  0.4145967731787313 0.1136129493462312 0  0.427091205130642 0.09294463440875371 0  0.4370032485370829 0.07092097740850713 0  0.4441883634852104 0.04786313285751155 0  0.4485417748196108 0.02410733605106461 0  0.45 0 0  0.55 0 0  0.5514582251803892 0.02410733605106462 0  0.5558116365147896 0.04786313285751154 0  0.5629967514629171 0.07092097740850717 0  0.5729087948693581 0.09294463440875382 0  0.5854032268212688 0.1136129493462312 0  0.6002978503657798 0.132624531648159 0  0.617375468351841 0.1497021496342203 0  0.6363870506537689 0.1645967731787313 0  0.6570553655912463 0.177091205130642 0  0.6790790225914929 0.187003248537083 0  0.7021368671424885 0.1941883634852104 0  0.7258926639489354 0.1985417748196108 0  0.75 0.2 0  0.7741073360510646 0.1985417748196108 0  0.7978631328575116 0.1941883634852104 0  0.8209209774085071 0.187003248537083 0  0.8429446344087537 0.177091205130642 0  0.8636129493462312 0.1645967731787313 0  0.8826245316481591 0.1497021496342202 0  0.8997021496342202 0.132624531648159 0  0.9145967731787312 0.1136129493462312 0  0.927091205130642 0.09294463440875371 0  0.9370032485370829 0.07092097740850713 0  0.9441883634852104 0.04786313285751155 0  0.9485417748196108 0.02410733605106461 0  0.95 0 0  1 0 0  1 0.3 0  0.9758926639489353 0.3014582251803892 0  0.9521368671424885 0.3058116365147896 0  0.9290790225914928 0.3129967514629171 0  0.9070553655912461 0.3229087948693581 0  0.8863870506537688 0.3354032268212687 0  0.867375468351841 0.3502978503657798 0  0.8502978503657798 0.367375468351841 0  0.8354032268212687 0.3863870506537689 0  0.822908794869358 0.4070553655912464 0  0.8129967514629171 0.4290790225914929 0  0.8058116365147896 0.4521368671424885 0  0.8014582251803892 0.4758926639489354 0  0.8 0.4999999999999999 0  0.8014582251803892 0.5241073360510646 0  0.8058116365147896 0.5478631328575115 0  0.8129967514629171 0.5709209774085071 0  0.8229087948693581 0.5929446344087538 0  0.8354032268212688 0.6136129493462312 0  0.8502978503657798 0.632624531648159 0  0.867375468351841 0.6497021496342202 0  0.8863870506537689 0.6645967731787313 0  0.9070553655912463 0.677091205130642 0  0.9290790225914929 0.6870032485370829 0  0.9521368671424885 0.6941883634852104 0  0.9758926639489354 0.6985417748196108 0  1 0.7 0  1 1 0  0.95 1 0  0.9485417748196108 0.9758926639489353 0  0.9441883634852104 0.9521368671424885 0  0.9370032485370829 0.9290790225914928 0  0.927091205130642 0.9070553655912463 0  0.9145967731787312 0.8863870506537688 0  0.8997021496342201 0.8673754683518409 0  0.882624531648159 0.8502978503657798 0  0.863612949346231 0.8354032268212686 0  0.8429446344087537 0.822908794869358 0  0.8209209774085071 0.8129967514629171 0  0.7978631328575114 0.8058116365147896 0  0.7741073360510646 0.8014582251803892 0  0.75 0.8 0  0.7258926639489353 0.8014582251803892 0  0.7021368671424885 0.8058116365147896 0  0.6790790225914928 0.8129967514629171 0  0.6570553655912461 0.8229087948693581 0  0.6363870506537688 0.8354032268212688 0  0.617375468351841 0.8502978503657798 0  0.6002978503657798 0.867375468351841 0  0.5854032268212687 0.8863870506537689 0  0.572908794869358 0.9070553655912463 0  0.5629967514629171 0.9290790225914929 0  0.5558116365147896 0.9521368671424885 0  0.5514582251803892 0.9758926639489355 0  0.55 0.9999999999999999 0  0.45 0.9999999999999999 0  0.4485417748196108 0.9758926639489353 0  0.4441883634852104 0.9521368671424885 0  0.4370032485370829 0.9290790225914928 0  0.427091205130642 0.9070553655912463 0  0.4145967731787313 0.8863870506537688 0  0.3997021496342201 0.8673754683518409 0  0.382624531648159 0.8502978503657798 0  0.363612949346231 0.8354032268212686 0  0.3429446344087536 0.822908794869358 0  0.3209209774085071 0.8129967514629171 0  0.2978631328575115 0.8058116365147896 0  0.2741073360510646 0.8014582251803892 0  0.25 0.8 0  0.2258926639489353 0.8014582251803892 0  0.2021368671424885 0.8058116365147896 0  0.1790790225914928 0.8129967514629171 0  0.1570553655912462 0.8229087948693581 0  0.1363870506537688 0.8354032268212688 0  0.117375468351841 0.8502978503657798 0  0.1002978503657797 0.867375468351841 0  0.08540322682126869 0.8863870506537689 0  0.07290879486935797 0.9070553655912463 0  0.06299675146291703 0.9290790225914929 0  0.05581163651478957 0.9521368671424885 0  0.0514582251803892 0.9758926639489355 0  0.04999999999999999 0.9999999999999999 0  0 1 0  -0 0.7000000000000001 0  0.0241073360510646 0.6985417748196108 0  0.04786313285751161 0.6941883634852104 0  0.07092097740850711 0.6870032485370829 0  0.09294463440875372 0.677091205130642 0  0.1136129493462312 0.6645967731787312 0  0.1326245316481591 0.6497021496342202 0  0.1497021496342202 0.632624531648159 0  0.1645967731787313 0.6136129493462312 0  0.177091205130642 0.5929446344087537 0  0.187003248537083 0.5709209774085071 0  0.1941883634852104 0.5478631328575115 0  0.1985417748196108 0.5241073360510646 0  0.2 0.5 0  0.1985417748196108 0.4758926639489353 0  0.1941883634852104 0.4521368671424885 0  0.1870032485370829 0.4290790225914928 0  0.177091205130642 0.4070553655912463 0  0.1645967731787313 0.3863870506537688 0  0.1497021496342202 0.3673754683518409 0  0.132624531648159 0.3502978503657798 0  0.113612949346231 0.3354032268212686 0  0.09294463440875361 0.322908794869358 0  0.07092097740850711 0.3129967514629171 0  0.04786313285751148 0.3058116365147896 0  0.02410733605106464 0.3014582251803892 0  0.6985417748196108 0.5241073360510646 0  0.7 0.5 0  0.6985417748196108 0.4758926639489353 0  0.6941883634852104 0.4521368671424885 0  0.6870032485370829 0.4290790225914928 0  0.677091205130642 0.4070553655912463 0  0.6645967731787312 0.3863870506537688 0  0.6497021496342201 0.3673754683518409 0  0.632624531648159 0.3502978503657798 0  0.613612949346231 0.3354032268212686 0  0.5929446344087537 0.322908794869358 0  0.5709209774085071 0.3129967514629171 0  0.5478631328575114 0.3058116365147896 0  0.5241073360510646 0.3014582251803892 0  0.4999999999999999 0.3 0  0.4758926639489353 0.3014582251803892 0  0.4521368671424885 0.3058116365147896 0  0.4290790225914928 0.3129967514629171 0  0.4070553655912462 0.3229087948693581 0  0.3863870506537688 0.3354032268212687 0  0.367375468351841 0.3502978503657798 0  0.3502978503657798 0.367375468351841 0  0.3354032268212687 0.3863870506537689 0  0.322908794869358 0.4070553655912464 0  0.3129967514629171 0.4290790225914929 0  0.3058116365147896 0.4521368671424885 0  0.3014582251803892 0.4758926639489354 0  0.3 0.4999999999999999 0  0.3014582251803892 0.5241073360510646 0  0.3058116365147896 0.5478631328575115 0  0.3129967514629171 0.5709209774085071 0  0.3229087948693581 0.5929446344087538 0  0.3354032268212687 0.6136129493462312 0  0.3502978503657798 0.632624531648159 0  0.367375468351841 0.6497021496342202 0  0.3863870506537689 0.6645967731787313 0  0.4070553655912463 0.677091205130642 0  0.4290790225914929 0.6870032485370829 0  0.4521368671424885 0.6941883634852104 0  0.4758926639489354 0.6985417748196108 0  0.4999999999999999 0.7 0  0.5241073360510646 0.6985417748196108 0  0.5478631328575116 0.6941883634852104 0  0.5709209774085071 0.6870032485370829 0  0.5929446344087537 0.677091205130642 0  0.6136129493462312 0.6645967731787312 0  0.6326245316481591 0.6497021496342202 0  0.6497021496342202 0.632624531648159 0  0.6645967731787312 0.6136129493462312 0  0.677091205130642 0.5929446344087537 0  0.6870032485370829 0.5709209774085071 0  0.6941883634852104 0.5478631328575115 0  0 0.15 0  1 0.15 0  1 0.85 0  0 0.8500000000000001 0  0 0.075 0  1 0.075 0  1 0.925 0  0 0.925 0  0.5 0.8127595604293815 0  0.5069440078039168 0.190422209288238 0  0.25 0.3127595604293815 0  0.756944007803917 0.3095777907117619 0  0.756944007803917 0.6904222092882382 0  0.25 0.6872404395706185 0  0 0.225 0  0.4255768646051012 0.2241073097134061 0  1 0.7749999999999999 0  0.6773391559270888 0.2766774022734219 0  1 0.225 0  0.6755768646051011 0.7241073097134062 0  0 0.7750000000000001 0  0.5818971135297744 0.2287925518358889 0  0.8318971135297746 0.728792551835889 0  0.1659156081861886 0.7301636995921477 0  0.08376842746533225 0.2299656297760495 0  0.4236002201977974 0.7746535834185855 0  0.0840843918138115 0.7698363004078523 0  0.3340843918138113 0.7301636995921477 0  0.3340843918138114 0.2698363004078523 0  0.9159156081861887 0.2301636995921477 0  0.5840843918138116 0.7698363004078522 0  0.1659156081861887 0.2698363004078523 0  0.9162315725346678 0.7700343702239506 0  0.8340843918138114 0.2698363004078523 0  0.75 0.6146645247768686 0  0.5 0.1125158665330878 0  0.75 0.3874841334669124 0  0.2504983345544904 0.6122915843562002 0  0.2504983345544902 0.3877084156437999 0  0.5 0.8879783056303169 0  0.7005361650220154 0.3333055947145943 0  0.70416808765371 0.6599554817221275 0  0.449930214263529 0.1678187287522426 0  0.2247310981387008 0.7415600637745463 0  0.5155081196221678 0.7563797802146907 0  0.2752689018612993 0.2584399362254537 0  0.05605196690611226 0.8246131191226815 0  0.943948033093887
[...]
<PointData  Scalars="Temperature"> 
<DataArray  type="Float64"  Name="Temperature"  format="ascii">7.7389785649603468e+01  7.8564930085782152e+01  7.8562993739422879e+01  7.8536300728306770e+01  7.8461644935575578e+01  7.8345502121266065e+01  7.8190060167507966e+01  7.7996827714365210e+01  7.7767571851872916e+01  7.7498840856657949e+01  7.7183005333819906e+01  7.6823605604887618e+01  7.6431068775270759e+01  7.6014039662798282e+01  7.5580958337375492e+01  7.5142596339606115e+01  7.4699757832056633e+01  7.4250237554893815e+01  7.3802338531240039e+01  7.3353334247453162e+01  7.2925404338734367e+01  7.2533884914506345e+01  7.2195331439944695e+01  7.1932764893782632e+01  7.1744420892614585e+01  7.1627805477155277e+01  7.1563535671487656e+01  7.1536829367124525e+01  7.1530098679119590e+01  7.1446905849957631e+01  7.1423964722812059e+01  7.1352456611261147e+01  7.1217793034871818e+01  7.1007583945141988e+01  7.0702747143774445e+01  7.0301946316217794e+01  6.9811938660187778e+01  6.9249077254841183e+01  6.8638542414357630e+01  6.8015723145102726e+01  6.7416130241220785e+01  6.6869248508927498e+01  6.6392617682651036e+01  6.5991277290391338e+01  6.5660872822518755e+01  6.5396359335074251e+01  6.5181596608929397e+01  6.5008652236996397e+01  6.4869923637259873e+01  6.4756621039999601e+01  6.4664669427890246e+01  6.4589195135038707e+01  6.4529353385690541e+01  6.4484876152036080e+01  6.4456310075065986e+01  6.4446114857471130e+01  6.4445283558534300e+01  6.4844686747905229e+01  6.4860116380029055e+01  6.4903846951686376e+01  6.4968175746542187e+01  6.5038618056110167e+01  6.5095707848441450e+01  6.5113867021338564e+01  6.5067168735070013e+01  6.4935363331245412e+01  6.4709471553231097e+01  6.4372011151974803e+01  6.3944904198615092e+01  6.3449093267956947e+01  6.2918181575075124e+01  6.2389176756122140e+01  6.1891715665245179e+01  6.1430235043445023e+01  6.1009512744236602e+01  6.0612955875746330e+01  6.0234866040099725e+01  5.9877509773775834e+01  5.9536876554179003e+01  5.9229691018158903e+01  5.8968068159543236e+01  5.8769252705251922e+01  5.8646344856396723e+01  5.8603200297980337e+01  5.7657731391589230e+01  5.7659181190613801e+01  5.7680515720481750e+01  5.7740353212670634e+01  5.7833475792424224e+01  5.7958489524339669e+01  5.8113832609836649e+01  5.8299569824939013e+01  5.8518335982584297e+01  5.8771485152139590e+01  5.9061703207009295e+01  5.9383973086271752e+01  5.9726564418052874e+01  6.0086524484394509e+01  6.0448817758988028e+01  6.0821600328685498e+01  6.1200339941377194e+01  6.1583895594299186e+01  6.1965324112509691e+01  6.2335812893156792e+01  6.2669468592479831e+01  6.2961037288831491e+01  6.3184599887195233e+01  6.3346610586112583e+01  6.3444346170571023e+01  6.3494632294929772e+01  6.3516474286285607e+01  6.3521569169811791e+01  6.3594797275164794e+01  6.3617560065903106e+01  6.3684711256902439e+01  6.3806513678000094e+01  6.3997624486882749e+01  6.4276266969036897e+01  6.4639386489275296e+01  6.5086168102279842e+01  6.5594481006498114e+01  6.6147855909394508e+01  6.6707275018774268e+01  6.7238767504781251e+01  6.7721526299043887e+01  6.8127825798748802e+01  6.8459420988892873e+01  6.8715310160133797e+01  6.8909287476008899e+01  6.9053790901357061e+01  6.9162139333225127e+01  6.9244378188235544e+01  6.9307416226207394e+01  6.9356105731953619e+01  6.9395076160021802e+01  6.9425075095136975e+01  6.9447414317486562e+01  6.9461049984431767e+01  6.9466188072781748e+01  6.9466350944162670e+01  6.9293873177868491e+01  6.9287640425721335e+01  6.9271371220611925e+01  6.9251520926379371e+01  6.9239041884017027e+01  6.9250718831838640e+01  6.9307532377083362e+01  6.9431425108891418e+01  6.9645254592213504e+01  6.9959086021057374e+01  7.0382530494819676e+01  7.0903895400676575e+01  7.1502762559338620e+01  7.2137451927346319e+01  7.2771715257555840e+01  7.3373590589224364e+01  7.3929122515720806e+01  7.4440060575919105e+01  7.4922648057560494e+01  7.5383496290171195e+01  7.5825408230614272e+01  7.6239054194696095e+01  7.6615981231866442e+01  7.6938578121493251e+01  7.7181066971625626e+01  7.7335692161317738e+01  6.2458926254021932e+01  6.2973939568027816e+01  6.3529079886187532e+01  6.4099184944674136e+01  6.4669859600385152e+01  6.5241004536765416e+01  6.5825121206987447e+01  6.6435953577293191e+01  6.7084570660642697e+01  6.7756806115441279e+01  6.8446598524968266e+01  6.9144061546297692e+01  6.9824182537828008e+01  7.0479581902794024e+01  7.1103888344280691e+01  7.1692886734337861e+01  7.2240297212977765e+01  7.2745017753543820e+01  7.3192847821147950e+01  7.3570320456753890e+01  7.3845564477133692e+01  7.4006346777886648e+01  7.4029393039323494e+01  7.3907610193670166e+01  7.3631876983484815e+01  7.3221701379711945e+01  7.2694595011737718e+01  7.2083001694853678e+01  7.1431840759178300e+01  7.0775750442010136e+01  7.0138507178403430e+01  6.9508303238723386e+01  6.8894132229137384e+01  6.8278956005374425e+01  6.7649609453231278e+01  6.7011206144743028e+01  6.6358978768322274e+01  6.5720801377265900e+01  6.5096422146669013e+01  6.4506325545635605e+01  6.3947200215532519e+01  6.3424174594811511e+01  6.2936642388223852e+01  6.2495875763337999e+01  6.2102100737556761e+01  6.1774173164150120e+01  6.1531549144752724e+01  6.1386438411071403e+01  6.1358453742205349e+01  6.1455945728954212e+01  6.1680279389743475e+01  6.2021288972223715e+01  7.7997642539925081e+01  6.4655284686500039e+01  5.8111674801039293e+01  6.9365246522250075e+01  7.8391223984300808e+01  6.4511333589863384e+01  5.7796820861331838e+01  6.9434336879794884e+01  6.3803819910345155e+01  7.1136275515187506e+01  7.4851614120182006e+01  6.5805900713887851e+01  6.0604651251131678e+01  6.8734896751571782e+01  7.7597775273241652e+01  7.2408590708768500e+01  5.8433400286855097e+01  6.7250880287317855e+01  6.4785698293097497e+01  6.1349780466080013e+01  6.9311281116847098e+01  6.9620365705106508e+01  5.9662624838740314e+01  6.9017142078134796e+01  7.7239808361280808e+01  6.5147877511018962e+01  6.9235048476091563e+01  6.7176798045698447e+01  7.3929256233157219e+01  6.4928275328349798e+01  6.2636027461500106e+01  7.6124431942473564e+01  5.8723809508803477e+01  6.5345605208019194e+01  6.1180701949435210e+01  7.1377015990718363e+01  6.4984444460800972e+01  6.9719967893953935e+01  7.4200476876985647e+01  6.3668809262341476e+01  6.6214669842779941e+01  6.1130196745195171e+01  7.1891712607605584e+01  6.8576583872548952e+01  6.3634540926944005e+01  7.4716905815589456e+01  6.9313078986050414e+01  6.4757766502378246e+01  7.7731772056334847e+01  5.8346842915123567e+01  7.1448016902486458e+01  6.0727535778156387e+01  6.6468920263955212e+01  6.4452791909121203e+01  6.9173775763148285e+01  7.5399510878619651e+01  6.8207740627369077e+01  7.4244894607404063e+01  6.3117371534572129e+01  7.1458266846402395e+01  6.4046160840369893e+01  6.2095842517056504e+01  7.3325548855728897e+01  7.1040031733573358e+01  6.3557388547364084e+01  6.3589512688975582e+01  7.5438219192507447e+01  6.7991091789704740e+01  7.0390658903241970e+01  6.0580507841612594e+01  6.5303184404439747e+01  6.8422912811492026e+01  7.3132705723031449e+01  7.3376084020059508e+01  6.1896250807733054e+01  6.2106080185523894e+01  6.8193122885155390e+01  6.0169753058694127e+01  6.5808107497947930e+01  6.3059332173918222e+01  7.1489031260177555e+01  7.2242791575394435e+01  6.6147163069171000e+01  6.6284807128890094e+01  7.0555730247317058e+01  5.9130179305221915e+01  5.9181522567293953e+01  6.4333198786415451e+01  7.6825988675468508e+01  6.9284918034130001e+01  6.5028970443992364e+01  6.9089768272828650e+01  7.6620448735214012e+01  6.9187536119566147e+01  6.4851834269338553e+01  6.5159098122335251e+01  5.8630752281619465e+01  7.7352616575196578e+01  6.4640634813088838e+01  5.8046860121905347e+01  7.8080294485225011e+01  6.9370454948255983e+01  6.5071128297985950e+01  6.0159559885512351e+01  7.0932911112457219e+01  6.0960755351048533e+01  6.2582262398609359e+01  6.7369221615437283e+01  7.6026407607090292e+01  6.4902831816309543e+01  7.3822551587121268e+01  6.9192773193973011e+01  6.9231918776410112e+01  7.7387311364356307e+01  5.8637953716075202e+01  6.9554099850642501e+01  7.4756495556130247e+01  6.3513974746684681e+01  5.9782939477398777e+01  7.4415291796348669e+01  6.8978631116191181e+01  6.7273477304001219e+01  6.7212158395025327e+01  6.5273027458909240e+01  7.2203650999804125e+01  6.1555793182831508e+01  7.2638841811198560e+01  6.1333190715175085e+01  6.4041811508850216e+01  6.4944663416599937e+01  6.9505380914896122e+01  6.6447355522646916e+01  5.9714515471833870e+01  6.9290112388345904e+01  6.8804371737273954e+01  7.4028947847044321e+01  6.7299625169131389e+01  7.5995927734030346e+01  6.5187128633992586e+01  6.2714281532493338e+01  7.1714645264187666e+01  7.7564122848679119e+01  6.5460465697061721e+01  6.4812773146034715e+01  6.9293948846395367e+01  6.3357919522655330e+01  6.9334234023398494e+01  6.4726557833129945e+01  6.5565034100800020e+01  5.8272211905309156e+01  7.1701977904128981e+01  6.5591611408568369e+01  6.5476646275625868e+01  7.1433306306751845e+01  7.7788815008456837e+01  6.1498277665060833e+01  6.1455335162144834e+01  6.0836966374663284e+01  7.0359243531383299e+01  7.4154869975007060e+01  6.9192243076009618e+01  7.4097474039447775e+01  6.9248899062692445e+01  7.1546389284667157e+01  7.1290830261546262e+01  6.4489495535420687e+01  6.4746427498049556e+01  6.3349204540333815e+01  6.3515546032944158e+01  6.3791815455942420e+01  5.8281254432680790e+01  6.9298419876223235e+01  5.7944650348744851e+01  6.4826071373620778e+01  7.7451058534539044e+01  6.4462823164288224e+01  7.8519084594214405e+01  6.4579718751870018e+01  6.4554600310899019e+01  7.8207274900977254e+01  5.7694324111277062e+01  6.9457817304880066e+01  5.8551924810235192e+01  6.9401260919803775e+01  6.9412516429648477e+01  7.3746681629359685e+01  7.0241177273111475e+01  6.8852040853055527e+01  7.4371711848324395e+01  6.3979910635246860e+01  5.8881612137734358e+01  6.7997615515012157e+01  7.5339154853080771e+01  6.0338393517313023e+01  6.0976229279451836e+01  6.4216404176877077e+01  5.8474881132034980e+01  6.3085323489285564e+01  7.0803466359228096e+01  6.9198650154598639e+01  7.4728141128423374e+01  7.6611563612080971e+01  6.8942352039412484e+01  7.0914341475543750e+01  6.5968359042287688e+01  6.5416090557405809e+01  6.3269961338992630e+01  6.1254494190658008e+01  6.1359851594276890e+01  5.7882146340495645e+01  7.8284611341656202e+01  7.7036582009956788e+01  6.0202577192387110e+01  6.8264615932053758e+01  7.5289893206928880e+01  6.5157149330542055e+01  7.0267924542919062e+01  6.1183687842547890e+01  6.4926406952861569e+01  6.6095626021317273e+01  7.2881798864978151e+01  6.1702161259790124e+01  6.5565764674141462e+01  7.8456206218030886e+01  6.4497986806372595e+01  5.7745085922254930e+01  6.9445879060924611e+01  6.5852489075597134e+01  6.1826597859418719e+01  7.1954599418089813e+01  6.9327120491487037e+01  6.9342944191084214e+01  6.4722655776168750e+01  6.4702563724943886e+01  6.6648483799819118e+01  7.7678924327077198e+01  7.7495576201150058e+01  7.7866415374169648e+01  7.2244404678165395e+01  7.2120828554397079e+01  7.7099398373629157e+01  6.4254574207246762e+01  6.9215105305334703e+01  6.9126082592633608e+01  6.5058044625299701e+01  6.6782260007731253e+01  6.6138386849036578e+01  7.3103995595798736e+01  6.1896852479835097e+01  5.8185343284560332e+01  6.1288082989193605e+01  6.0893632307041536e+01  6.9901479727694166e+01  6.3529717221792865e+01  6.5161051171532620e+01  7.1510701208995684e+01  7.1450804448699287e+01  6.3548068391707481e+01  6.3820454811149290e+01  7.2796643342165197e+01  7.3088566389393279e+01  6.6861103068195263e+01  5.9431713707222585e+01  6.3623753251951314e+01  6.8321425778612067e+01  7.4293726870945051e+01  6.6729575691406197e+01  7.5705419958622016e+01  6.7762873275433819e+01  6.8384148486374684e+01  6.8853364073761881e+01  7.4530304737733843e+01  7.4993886862661498e+01  6.8528491018262656e+01  6.2865435802439833e+01  6.3108692232895486e+01  7.4523914875593320e+01  6.9070520397059482e+01  7.4113838778606961e+01  7.5581522818101703e+01  6.8007983671521174e+01  6.9417195550450231e+01  6.3449795917369286e+01  6.2569033132405565e+01  6.2652422996230264e+01  7.1761381824967188e+01  7.1645476497630440e+01  7.6461290782396333e+01  6.1084742536736741e+01  6.0924635536680675e+01  6.0670214100677136e+01  7.2733592898482257e+01  6.1680983786606170e+01  6.3759538723179027e+01  7.2667878940644556e+01  6.4414288113442609e+01  6.4718782839234819e+01  6.6026942866811908e+01  7.1411650379718807e+01  7.1283329395560756e+01  6.6796855570146860e+01  6.7737951744305406e+01  5.8518541653584492e+01  7.7010532040907250e+01  6.5080535606182480e+01  7.0516756431556445e+01  5.9221887360026862e+01  5.8906111051875889e+01  6.5523477367307194e+01  6.5341150817943500e+01  6.5266433297089677e+01  6.8953352483352546e+01  7.3399721901097479e+01  7.3620938258351188e+01  6.2178621651360615e+01  6.2318333440566619e+01  6.5842587648763811e+01  6.9828513599269783e+01  7.1196580594066106e+01  6.9053728869667680e+01  6.5044576329510491e+01  6.1523609298716522e+01  6.4854190528185612e+01  6.9272890687734204e+01  7.0192533025517974e+01  5.7658465194332088e+01  6.4445674011431265e+01  7.8564115744706370e+01  6.9466326117147815e+01  7.1524601849431122e+01  6.8797126097913150e+01  7.3550585452059067e+01  6.4861161929432001e+01  6.1568341366656334e+01  6.5125949485709100e+01  7.1377836946324734e+01  7.1533524252659660e+01  7.3818403005496720e+01  6.5733232052981521e+01  5.9483768392129249e+01  5.9273678813541743e+01  5.8979073486507453e+01  5.9446266313162823e+01  6.2346745024621356e+01  7.3642434657131361e+01  6.9960008996774633e+01  6.3563787719184560e+01  6.3532438427752318e+01  6.3630945943902674e+01  6.2146104168527046e+01  6.1922111467217483e+01  7.1023233602771427e+01  7.0845725641185680e+01  7.6326989875583749e+01  7.4069833349123499e+01  6.5716483720903128e+01  7.6946627656263814e+01  6.9016201529643183e+01  6.6722604598759645e+01  6.4559485834310280e+01  7.7508985103013799e+01  7.1960799974618638e+01  6.0614615500647105e+01  6.0551900838646496e+01  5.8437837338855260e+01  6.8697173669138806e+01  7.5819974075745890e+01  6.7591177259904185e+01  6.8996607157231153e+01  6.9114732817981505e+01  6.9172971928669128e+01  7.2458985571371556e+01  6.3247655589837663e+01  7.7890431955384429e+01  5.8843236390875482e+01  7.3646293272512509e+01  6.7813005702715415e+01  6.9317292170860242e+01  6.4754235114665249e+01  6.0901675057884198e+01  6.6743124601775421e+01  7.3973473574911495e+01  6.2819409570460365e+01  7.5169420544106202e+01  6.4042363985567249e+01  5.8513983714408489e+01  6.9230316058181003e+01  6.7824676936343110e+01  7.3310962458571908e+01  6.4984571868354877e+01  7.1421127776457951e+01  6.4463926346798488e+01  6.9460181615663345e+01  7.8532322637891340e+01  5.7683457444726940e+01  6.8258918825206834e+01  6.5242717808300881e+01  5.9124066750755723e+01  6.5289071683413766e+01  6.9137801235409341e+01  6.7710269911795990e+01  6.4933580873697579e+01  6.2443445784521344e+01  7.7208810286250340e+01  6.9266130884130064e+01  6.9218920876977847e+01  6.8588321230787344e+01  6.5552447777276569e+01  6.6240615536265580e+01  6.6885983076574419e+01  6.9280753585595150e+01  6.4873417769510723e+01  6.9300941040682801e+01  6.4767002031896467e+01  7.0738950859205787e+01  7.4927920594961051e+01  6.9810314978188174e+01  5.9986653395474285e+01  7.5078337098857602e+01  6.3748602130767104e+01  5.9865179521290692e+01  6.0439035276940771e+01  6.0410467879264367e+01  6.6243674784961129e+01  6.3711176062426226e+01  5.8611802270126582e+01  7.1184273934701594e+01  7.5733785793082689e+01  6.7513889278778436e+01  6.3842282754115836e+01  6.1357322305895487e+01  6.9641440132571105e+01  6.9179763920563317e+01  5.8355322517794576e+01  7.4667344866023342e+01  6.8557019520116057e+01  7.1459906049657789e+01  6.3583255252014297e+01  7.1518090996725803e+01  7.1006068147263917e+01  7.6219914598849286e+01  6.4820733299344269e+01  6.9285231373894234e+01  6.9259608273739730e+01  6.4872181622336598e+01  6.4808846693248952e+01  6.4807190095520966e+01  5.8446407225404371e+01  7.7720804317237167e+01  6.8901983541996813e+01  7.4547409818109173e+01  6.3508160358918978e+01  7.1003006867655756e+01  7.0072666169475056e+01  6.8401448484210647e+01  7.1922409980787691e+01  7.4061147896967725e+01  7.5117505379518121e+01  6.5084499610755643e+01  6.9388144248160614e+01  6.4625311100527583e+01  5.9556899366791129e+01  6.9277521826513635e+01  6.4672104591134783e+01  7.6795941343705962e+01  6.5002533612872838e+01  7.6398778497383759e+01  7.6676666804059934e+01  5.8744492038164559e+01  5.8608775009106239e+01  7.7381478981434469e+01  7.7401214967773669e+01  7.3180710369229701e+01  6.4853323925211086e+01  6.4388794634153314e+01  6.4928912833620956e+01  6.4795542061747781e+01  6.4004259533716052e+01  6.6143259888867121e+01  5.8247048486117940e+01  6.3309815480343403e+01  6.5671795442858681e+01  7.4239475748608854e+01  7.2847169846345864e+01  6.5215296091137958e+01  6.3545537328224896e+01  6.3424491589553142e+01  6.4500359187925966e+01  6.0997728830953669e+01  7.3893218242190173e+01  7.1668596429485589e+01  6.9315359436032963e+01  6.9706858535709642e+01  6.9535357133399955e+01  7.4518491791708811e+01  5.8026601991792560e+01  7.8103939874132578e+01  7.8009792020698526e+01  7.8019270935772795e+01  5.8132031284463004e+01  5.7964553384160887e+01  5.9691688513379759e+01  6.8623881731248346e+01  6.0075525976418227e+01  7.0503113208896593e+01  6.1212152869525582e+01  6.4698480407723750e+01  6.4653525792066446e+01  6.9344233959214264e+01  6.9382814075589678e+01  6.9366046391113485e+01  6.3501316009939281e+01  7.8183845515201000e+01  6.9394135905262928e+01  6.4593658294773846e+01  5.8846849607515068e+01  7.0705596463906389e+01  6.3973507533850082e+01  6.9891161446937716e+01  7.4450638144106719e+01  6.9334474369051151e+01  6.4838900579075954e+01  6.9294841085116218e+01  6.2208038846042697e+01  6.0349862936743484e+01  6.0380003305920013e+01  5.9865097333632221e+01  7.5607775446009569e+01  6.3733321391938276e+01  7.7290121589014944e+01  6.0060122620424195e+01  6.9195450829998904e+01  6.4948653134127895e+01  6.9948495076265019e+01  7.0649583140363745e+01  5.8078218944996927e+01  6.4188543239042062e+01  7.7265128149480830e+01  6.0605607431598841e+01  6.4449229978719075e+01  6.1838020198127218e+01  7.3723675171530687e+01  6.7726501033970706e+01  6.3110114361501083e+01  6.4055809436580986e+01  6.3052901597251626e+01  6.4954908073699258e+01  7.5738677861667483e+01  7.2297837941463641e+01  6.6989156585719243e+01  6.5529663878257750e+01  6.5134802145304775e+01  6.5744057046403313e+01  6.5869453760706918e+01  6.3655028884167244e+01  6.8807231939472544e+01  6.9239738024904298e+01  6.7219536572373570e+01  6.4839894168769533e+01  6.9292775800018944e+01  6.4987639008946431e+01  7.4652787846748936e+01  6.8919156575633735e+01  7.1547765207534468e+01  7.1485996020338490e+01  7.1810439525019603e+01  6.5509787598545358e+01  6.5285955965301397e+01  6.1085937804303271e+01  6.1109917167252192e+01  6.0867701837841850e+01  6.6617122576902574e+01  5.8591152000489934e+01  6.4820962452230575e+01  6.7412275283946968e+01  7.7312398033217008e+01  7.7578496369780339e+01  7.6320081916256527e+01  6.7228079661659081e+01  6.7759700196441429e+01  6.7342283528986286e+01  6.4943866959816717e+01  6.2523443936852289e+01  7.5911992433052362e+01  7.3744861331691837e+01  5.8639535365848609e+01  7.1821788220791603e+01  7.2310864989450522e+01  6.5218304582802986e+01  7.5558203536979278e+01  6.1681555976126070e+01  7.2451083287877594e+01  6.1481450734622605e+01  7.2537184994557265e+01  6.5118319822578428e+01  6.5446991977689152e+01  6.2852096481304997e+01  7.4020455081013310e+01  6.2705323692061555e+01  6.1373239520482670e+01  6.5548590557166477e+01  6.5091123886588548e+01  7.4052005534259550e+01  6.3808914877600145e+01  6.7283510464826691e+01  7.1555494817561652e+01  6.7295006090993411e+01  6.2637631228095607e+01  7.2355612829691111e+01  5.7964584108391136e+01  7.8145703898299530e+01  7.18