<?xml version="1.0"?>
<VTKFile type="UnstructuredGrid"  version="0.1"  >
<UnstructuredGrid>
<Piece  NumberOfPoints="2331" NumberOfCells="4248">
<Points>
<DataArray  type="Float64"  NumberOfComponents="3"  format="ascii">0 0.3 0  0 0 0  0.04999999999999999 0 0  0.0514582251803892 0.02410733605106462 0  0.0558116365147896 0.04786313285751154 0  0.06299675146291706 0.07092097740850717 0  0.07290879486935808 0.09294463440875382 0  0.08540322682126872 0.1136129493462312 0  0.1002978503657798 0.132624531648159 0  0.117375468351841 0.1497021496342203 0  0.1363870506537689 0.1645967731787313 0  0.1570553655912463 0.177091205130642 0  0.1790790225914929 0.187003248537083 0  0.2021368671424885 0.1941883634852104 0  0.2258926639489354 0.1985417748196108 0  0.25 0.2 0  0.2741073360510646 0.1985417748196108 0  0.2978631328575116 0.1941883634852104 0  0.3209209774085071 0.187003248537083 0  0.3429446344087537 0.177091205130642 0  0.3636129493462312 0.1645967731787313 0  0.3826245316481591 0.1497021496342202 0  0.3997021496342202 0.132624531648159 0  0.4145967731787313 0.1136129493462312 0  0.427091205130642 0.09294463440875371 0  0.4370032485370829 0.07092097740850713 0  0.4441883634852104 0.04786313285751155 0  0.4485417748196108 0.02410733605106461 0  0.45 0 0  0.55 0 0  0.5514582251803892 0.02410733605106462 0  0.5558116365147896 0.04786313285751154 0  0.5629967514629171 0.07092097740850717 0  0.5729087948693581 0.09294463440875382 0  0.5854032268212688 0.1136129493462312 0  0.6002978503657798 0.132624531648159 0  0.617375468351841 0.1497021496342203 0  0.6363870506537689 0.1645967731787313 0  0.6570553655912463 0.177091205130642 0  0.6790790225914929 0.187003248537083 0  0.7021368671424885 0.1941883634852104 0  0.7258926639489354 0.1985417748196108 0  0.75 0.2 0  0.7741073360510646 0.1985417748196108 0  0.7978631328575116 0.1941883634852104 0  0.8209209774085071 0.187003248537083 0  0.8429446344087537 0.177091205130642 0  0.8636129493462312 0.1645967731787313 0  0.8826245316481591 0.1497021496342202 0  0.8997021496342202 0.132624531648159 0  0.9145967731787312 0.1136129493462312 0  0.927091205130642 0.09294463440875371 0  0.9370032485370829 0.07092097740850713 0  0.9441883634852104 0.04786313285751155 0  0.9485417748196108 0.02410733605106461 0  0.95 0 0  1 0 0  1 0.3 0  0.9758926639489353 0.3014582251803892 0  0.9521368671424885 0.3058116365147896 0  0.9290790225914928 0.3129967514629171 0  0.9070553655912461 0.3229087948693581 0  0.8863870506537688 0.3354032268212687 0  0.867375468351841 0.3502978503657798 0  0.8502978503657798 0.367375468351841 0  0.8354032268212687 0.3863870506537689 0  0.822908794869358 0.4070553655912464 0  0.8129967514629171 0.4290790225914929 0  0.8058116365147896 0.4521368671424885 0  0.8014582251803892 0.4758926639489354 0  0.8 0.4999999999999999 0  0.8014582251803892 0.5241073360510646 0  0.8058116365147896 0.5478631328575115 0  0.8129967514629171 0.5709209774085071 0  0.8229087948693581 0.5929446344087538 0  0.8354032268212688 0.6136129493462312 0  0.8502978503657798 0.632624531648159 0  0.867375468351841 0.6497021496342202 0  0.8863870506537689 0.6645967731787313 0  0.9070553655912463 0.677091205130642 0  0.9290790225914929 0.6870032485370829 0  0.9521368671424885 0.6941883634852104 0  0.9758926639489354 0.6985417748196108 0  1 0.7 0  1 1 0  0.95 1 0  0.9485417748196108 0.9758926639489353 0  0.9441883634852104 0.9521368671424885 0  0.9370032485370829 0.9290790225914928 0  0.927091205130642 0.9070553655912463 0  0.9145967731787312 0.8863870506537688 0  0.8997021496342201 0.8673754683518409 0  0.882624531648159 0.8502978503657798 0  0.863612949346231 0.8354032268212686 0  0.8429446344087537 0.822908794869358 0  0.8209209774085071 0.8129967514629171 0  0.7978631328575114 0.8058116365147896 0  0.7741073360510646 0.8014582251803892 0  0.75 0.8 0  0.7258926639489353 0.8014582251803892 0  0.7021368671424885 0.8058116365147896 0  0.6790790225914928 0.8129967514629171 0  0.6570553655912461 0.8229087948693581 0  0.6363870506537688 0.8354032268212688 0  0.617375468351841 0.8502978503657798 0  0.6002978503657798 0.867375468351841 0  0.5854032268212687 0.8863870506537689 0  0.572908794869358 0.9070553655912463 0  0.5629967514629171 0.9290790225914929 0  0.5558116365147896 0.9521368671424885 0  0.5514582251803892 0.9758926639489355 0  0.55 0.9999999999999999 0  0.45 0.9999999999999999 0  0.4485417748196108 0.9758926639489353 0  0.4441883634852104 0.9521368671424885 0  0.4370032485370829 0.9290790225914928 0  0.427091205130642 0.9070553655912463 0  0.4145967731787313 0.8863870506537688 0  0.3997021496342201 0.8673754683518409 0  0.382624531648159 0.8502978503657798 0  0.363612949346231 0.8354032268212686 0  0.3429446344087536 0.822908794869358 0  0.3209209774085071 0.8129967514629171 0  0.2978631328575115 0.8058116365147896 0  0.2741073360510646 0.8014582251803892 0  0.25 0.8 0  0.2258926639489353 0.8014582251803892 0  0.2021368671424885 0.8058116365147896 0  0.1790790225914928 0.8129967514629171 0  0.1570553655912462 0.8229087948693581 0  0.1363870506537688 0.8354032268212688 0  0.117375468351841 0.8502978503657798 0  0.1002978503657797 0.867375468351841 0  0.08540322682126869 0.8863870506537689 0  0.07290879486935797 0.9070553655912463 0  0.06299675146291703 0.9290790225914929 0  0.05581163651478957 0.9521368671424885 0  0.0514582251803892 0.9758926639489355 0  0.04999999999999999 0.9999999999999999 0  0 1 0  -0 0.7000000000000001 0  0.0241073360510646 0.6985417748196108 0  0.04786313285751161 0.6941883634852104 0  0.07092097740850711 0.6870032485370829 0  0.09294463440875372 0.677091205130642 0  0.1136129493462312 0.6645967731787312 0  0.1326245316481591 0.6497021496342202 0  0.1497021496342202 0.632624531648159 0  0.1645967731787313 0.6136129493462312 0  0.177091205130642 0.5929446344087537 0  0.187003248537083 0.5709209774085071 0  0.1941883634852104 0.5478631328575115 0  0.1985417748196108 0.5241073360510646 0  0.2 0.5 0  0.1985417748196108 0.4758926639489353 0  0.1941883634852104 0.4521368671424885 0  0.1870032485370829 0.4290790225914928 0  0.177091205130642 0.4070553655912463 0  0.1645967731787313 0.3863870506537688 0  0.1497021496342202 0.3673754683518409 0  0.132624531648159 0.3502978503657798 0  0.113612949346231 0.3354032268212686 0  0.09294463440875361 0.322908794869358 0  0.07092097740850711 0.3129967514629171 0  0.04786313285751148 0.3058116365147896 0  0.02410733605106464 0.3014582251803892 0  0.6985417748196108 0.5241073360510646 0  0.7 0.5 0  0.6985417748196108 0.4758926639489353 0  0.6941883634852104 0.4521368671424885 0  0.6870032485370829 0.4290790225914928 0  0.677091205130642 0.4070553655912463 0  0.6645967731787312 0.3863870506537688 0  0.6497021496342201 0.3673754683518409 0  0.632624531648159 0.3502978503657798 0  0.613612949346231 0.3354032268212686 0  0.5929446344087537 0.322908794869358 0  0.5709209774085071 0.3129967514629171 0  0.5478631328575114 0.3058116365147896 0  0.5241073360510646 0.3014582251803892 0  0.4999999999999999 0.3 0  0.4758926639489353 0.3014582251803892 0  0.4521368671424885 0.3058116365147896 0  0.4290790225914928 0.3129967514629171 0  0.4070553655912462 0.3229087948693581 0  0.3863870506537688 0.3354032268212687 0  0.367375468351841 0.3502978503657798 0  0.3502978503657798 0.367375468351841 0  0.3354032268212687 0.3863870506537689 0  0.322908794869358 0.4070553655912464 0  0.3129967514629171 0.4290790225914929 0  0.3058116365147896 0.4521368671424885 0  0.3014582251803892 0.4758926639489354 0  0.3 0.4999999999999999 0  0.3014582251803892 0.5241073360510646 0  0.3058116365147896 0.5478631328575115 0  0.3129967514629171 0.5709209774085071 0  0.3229087948693581 0.5929446344087538 0  0.3354032268212687 0.6136129493462312 0  0.3502978503657798 0.632624531648159 0  0.367375468351841 0.6497021496342202 0  0.3863870506537689 0.6645967731787313 0  0.4070553655912463 0.677091205130642 0  0.4290790225914929 0.6870032485370829 0  0.4521368671424885 0.6941883634852104 0  0.4758926639489354 0.6985417748196108 0  0.4999999999999999 0.7 0  0.5241073360510646 0.6985417748196108 0  0.5478631328575116 0.6941883634852104 0  0.5709209774085071 0.6870032485370829 0  0.5929446344087537 0.677091205130642 0  0.6136129493462312 0.6645967731787312 0  0.6326245316481591 0.6497021496342202 0  0.6497021496342202 0.632624531648159 0  0.6645967731787312 0.6136129493462312 0  0.677091205130642 0.5929446344087537 0  0.6870032485370829 0.5709209774085071 0  0.6941883634852104 0.5478631328575115 0  0 0.15 0  1 0.15 0  1 0.85 0  0 0.8500000000000001 0  0 0.075 0  1 0.075 0  1 0.925 0  0 0.925 0  0.5 0.8127595604293815 0  0.5069440078039168 0.190422209288238 0  0.25 0.3127595604293815 0  0.756944007803917 0.3095777907117619 0  0.756944007803917 0.6904222092882382 0  0.25 0.6872404395706185 0  0 0.225 0  0.4255768646051012 0.2241073097134061 0  1 0.7749999999999999 0  0.6773391559270888 0.2766774022734219 0  1 0.225 0  0.6755768646051011 0.7241073097134062 0  0 0.7750000000000001 0  0.5818971135297744 0.2287925518358889 0  0.8318971135297746 0.728792551835889 0  0.1659156081861886 0.7301636995921477 0  0.08376842746533225 0.2299656297760495 0  0.4236002201977974 0.7746535834185855 0  0.0840843918138115 0.7698363004078523 0  0.3340843918138113 0.7301636995921477 0  0.3340843918138114 0.2698363004078523 0  0.9159156081861887 0.2301636995921477 0  0.5840843918138116 0.7698363004078522 0  0.1659156081861887 0.2698363004078523 0  0.9162315725346678 0.7700343702239506 0  0.8340843918138114 0.2698363004078523 0  0.75 0.6146645247768686 0  0.5 0.1125158665330878 0  0.75 0.3874841334669124 0  0.2504983345544904 0.6122915843562002 0  0.2504983345544902 0.3877084156437999 0  0.5 0.8879783056303169 0  0.7005361650220154 0.3333055947145943 0  0.70416808765371 0.6599554817221275 0  0.449930214263529 0.1678187287522426 0  0.2247310981387008 0.7415600637745463 0  0.5155081196221678 0.7563797802146907 0  0.2752689018612993 0.2584399362254537 0  0.05605196690611226 0.8246131191226815 0  0.9439480330938878 0.1
[...]
<PointData  Scalars="Temperature"> 
<DataArray  type="Float64"  Name="Temperature"  format="ascii">1.3931908619962351e+02  1.5147176714658667e+02  1.5145144489590936e+02  1.5117065481032932e+02  1.5038632411393604e+02  1.4916945716761796e+02  1.4754784256864511e+02  1.4554499809910288e+02  1.4318510267522799e+02  1.4044028951714955e+02  1.3723846983351743e+02  1.3361607136182030e+02  1.2967442709815720e+02  1.2549196155604420e+02  1.2114570966926682e+02  1.1673703172904865e+02  1.1228125153439579e+02  1.0777524563348480e+02  1.0332062953136447e+02  9.8903971880539444e+01  9.4734840956465007e+01  9.0934956272954381e+01  8.7639163599199179e+01  8.5026248429068445e+01  8.3074221892533259e+01  8.1758282549400079e+01  8.0944557393596838e+01  8.0531963201908582e+01  8.0411137907710057e+01  7.9773512536647928e+01  7.9671485058322432e+01  7.9329228397856440e+01  7.8623550596946771e+01  7.7442559387215042e+01  7.5638841148203795e+01  7.3196574935912309e+01  7.0176528838304733e+01  6.6692019061096005e+01  6.2919631913997904e+01  5.9082185551254753e+01  5.5383229719022616e+01  5.1981033340915282e+01  4.8953266970659598e+01  4.6314714897236072e+01  4.4046827658742991e+01  4.2138991397651587e+01  4.0517362472214359e+01  3.9163925240273734e+01  3.8053948751907967e+01  3.7136796426188113e+01  3.6390133306685634e+01  3.5778933352886831e+01  3.5296741806709520e+01  3.4940281982372007e+01  3.4712291339635009e+01  3.4631101484771811e+01  3.4624503034080888e+01  3.8061004082058375e+01  3.8213775229948048e+01  3.8655844781914055e+01  3.9344314546213617e+01  4.0191050916055566e+01  4.1084214768659400e+01  4.1877860197527312e+01  4.2447856521805690e+01  4.2681879276418243e+01  4.2543008977871111e+01  4.1979051593085096e+01  4.1098721231649037e+01  3.9999502021906380e+01  3.8811846300273196e+01  3.7657339255067107e+01  3.6600444291276936e+01  3.5639188520073056e+01  3.4765045435924193e+01  3.3921531181867707e+01  3.3087087968689126e+01  3.2272966055140238e+01  3.1473665361692483e+01  3.0741503035567600e+01  3.0112115223617661e+01  2.9632351333631618e+01  2.9335348477904812e+01  2.9231042380836893e+01  2.7111493337270360e+01  2.7114746391189303e+01  2.7162111980893595e+01  2.7295374326450251e+01  2.7504238329903004e+01  2.7787759634583495e+01  2.8146502864072659e+01  2.8585109864750773e+01  2.9114853165015653e+01  2.9746346337930998e+01  3.0495226989067859e+01  3.1362992070261519e+01  3.2332964643648452e+01  3.3415702585746523e+01  3.4584416895048669e+01  3.5875567167438042e+01  3.7270353864384312e+01  3.8756014787324304e+01  4.0283946295028706e+01  4.1793982356254247e+01  4.3161696818496907e+01  4.4347797316403508e+01  4.5233693370487039e+01  4.5847101475876507e+01  4.6181022925756949e+01  4.6317868333982915e+01  4.6357404232397428e+01  4.6360044990904207e+01  4.6701835589602048e+01  4.6833135724693328e+01  4.7215302866180700e+01  4.7889733843911934e+01  4.8922759426554791e+01  5.0396026739986134e+01  5.2292439634955997e+01  5.4608240721534187e+01  5.7229461916766375e+01  6.0073679964337536e+01  6.2930696719480395e+01  6.5612946894804125e+01  6.7991162301291467e+01  6.9914893809130987e+01  7.1379686693347423e+01  7.2381448851261595e+01  7.3017192713935273e+01  7.3368928781697662e+01  7.3525063343567410e+01  7.3561146566663723e+01  7.3521186383129276e+01  7.3436037665774450e+01  7.3332584646283578e+01  7.3228667430712548e+01  7.3139868936769716e+01  7.3081657897222115e+01  7.3059071152345950e+01  7.3058570718236439e+01  7.4131676606571887e+01  7.4164349548813462e+01  7.4267686400668566e+01  7.4460700839754310e+01  7.4787466884296563e+01  7.5312486075724138e+01  7.6135814754441185e+01  7.7363650545501883e+01  7.9122717922809500e+01  8.1468936225263036e+01  8.4469304940123394e+01  8.8060265833553828e+01  9.2139157135422906e+01  9.6454892309007931e+01  1.0079950264930285e+02  1.0499358500570408e+02  1.0898703033834028e+02  1.1283849489422418e+02  1.1669132022881229e+02  1.2056957925662059e+02  1.2447256295017743e+02  1.2826506625986363e+02  1.3181548057327583e+02  1.3491185043483932e+02  1.3727076916242947e+02  1.3878698159238374e+02  3.7931293335432485e+01  3.9091998190213914e+01  4.0477472511590776e+01  4.2068390363460843e+01  4.3871392009036441e+01  4.5955210878347337e+01  4.8408862493148440e+01  5.1286833902539016e+01  5.4651862572344804e+01  5.8395554726155304e+01  6.2474406741592844e+01  6.6819454436854755e+01  7.1281108312895952e+01  7.5820705116926248e+01  8.0387467398950534e+01  8.4971122176909205e+01  8.9492748627285877e+01  9.3912733431317378e+01  9.8050679453644562e+01  1.0175594871988071e+02  1.0470221352329928e+02  1.0675901626047704e+02  1.0770272657158884e+02  1.0746740592504818e+02  1.0600568690770932e+02  1.0348227629361736e+02  1.0006838418213755e+02  9.6036605971300276e+01  9.1734555071183337e+01  8.7433584755739119e+01  8.3327225138038557e+01  7.9374792795991624e+01  7.5648173121113402e+01  7.2043321009457173e+01  6.8488034134580303e+01  6.4996156781336651e+01  6.1516529484877111e+01  5.8187537785087038e+01  5.5000130574754778e+01  5.2052849056146876e+01  4.9321473771123337e+01  4.6826140794549495e+01  4.4546211524496961e+01  4.2513773749567918e+01  4.0694375635079851e+01  3.9139633835634875e+01  3.7890013685657685e+01  3.6972664325913968e+01  3.6424549245887370e+01  3.6260476836627127e+01  3.6478801825228267e+01  3.7049019943452215e+01  1.4553851049390167e+02  3.6331527723350057e+01  2.8125614026686137e+01  7.3520552670305236e+01  1.4964614405871177e+02  3.5152526534076003e+01  2.7420472061118645e+01  7.3201424521276735e+01  4.8338369199577151e+01  7.9582900176085403e+01  1.1475985031741587e+02  4.6592435680266924e+01  3.4492978888464442e+01  7.3845917128443091e+01  1.4142309724678819e+02  9.0377819274340311e+01  2.8848571224976002e+01  5.4925423885311993e+01  3.7480212284912682e+01  3.7560282319811755e+01  7.3896482306203168e+01  6.9432180701740251e+01  3.1948949871499337e+01  7.4059795137502590e+01  1.3783677281146495e+02  5.5086579606213832e+01  7.3932977413277470e+01  6.5597043496050247e+01  1.0491146668485570e+02  3.8694909799441071e+01  4.3125412566248265e+01  1.2687372837686620e+02  2.9567728050994969e+01  4.2411091186704240e+01  3.5391287202508110e+01  8.0221469074125011e+01  4.4218441097811208e+01  8.0316883994637095e+01  1.1033096928022559e+02  4.7356216459234567e+01  4.9675057301531574e+01  3.6013532206561415e+01  8.5242982840728928e+01  7.2272096330397758e+01  4.7735750586261112e+01  1.1269542790608328e+02  7.3647383991217055e+01  3.7180837360454511e+01  1.4280732730459391e+02  2.8668199462957027e+01  8.2673774432255286e+01  3.5351758469999140e+01  4.9819623235245388e+01  5.1430798436209912e+01  7.5831384086094189e+01  1.2033748929343680e+02  7.1377463760374482e+01  1.0874359993317401e+02  4.5126461684959260e+01  8.0133820918375733e+01  4.1629202198909979e+01  3.7098773953209083e+01  1.0442627737506115e+02  8.9080971025651550e+01  4.6523966966814108e+01  4.6764101493183027e+01  1.2001641861985502e+02  6.9650673710156099e+01  7.4067553500335521e+01  3.4011409758212558e+01  4.3383893466444619e+01  6.1779075485975220e+01  9.7253905285678655e+01  9.9272543921799553e+01  3.9960586655906489e+01  4.0777996653742790e+01  6.0732604949608586e+01  3.3461435398699741e+01  4.5416393048874497e+01  3.9208988262334273e+01  8.0091895715534648e+01  9.7134470813400753e+01  6.0156148393957992e+01  6.1028699154946253e+01  7.5889376829612260e+01  3.0624147228268342e+01  3.0667745312425339e+01  5.1041459128823718e+01  1.3378643910612814e+02  7.4056992919685513e+01  3.9802865503626421e+01  7.3690514649898560e+01  1.3162721894979998e+02  7.4363126819937563e+01  3.8099982021339734e+01  4.0516418502913979e+01  2.9311033304339659e+01  1.3896250347502283e+02  3.6201927544731369e+01  2.7985209750486536e+01  1.4640257594635904e+02  7.3445436019282837e+01  4.3549867258004134e+01  3.3164370156677016e+01  7.7286668535073176e+01  3.5870302553670555e+01  4.2838082415966269e+01  6.6841479187366886e+01  1.2618344071270023e+02  3.8363779519818095e+01  1.0418800241028688e+02  7.5241941593524089e+01  7.3671059649341203e+01  1.3930876500348668e+02  2.9393261653536211e+01  7.8767904927653774e+01  1.1503701293424356e+02  4.6810066347591416e+01  3.2114692833516969e+01  1.1118359816472686e+02  7.5745560628316753e+01  5.4668203562140022e+01  5.5128516277099756e+01  5.5618187890783361e+01  8.8985844797546960e+01  3.8205548098531402e+01  9.2120085644881954e+01  3.7703485031725727e+01  4.9233766032085498e+01  5.4174283149414549e+01  6.9010905902214674e+01  5.0282224678857055e+01  3.2228403046334222e+01  6.7064612367342590e+01  7.2911849553211979e+01  1.0565724736347426e+02  6.6023077591974825e+01  1.2540267695135771e+02  4.1793393118898109e+01  4.3510744019217803e+01  8.4311333768170272e+01  1.4109092368746144e+02  4.2789793607641926e+01  3.7692487701143051e+01  7.3849028603251483e+01  4.6331584899272357e+01  7.3706523306462998e+01  3.6943698558961223e+01  4.4369014103968993e+01  2.8510430373940299e+01  8.3023044973225097e+01  4.6376379314566925e+01  4.6610407827700946e+01  8.1276039437350875e+01  1.4337967312384612e+02  3.5847802688208802e+01  3.6069244094883580e+01  3.4817925533619700e+01  8.4426222967108345e+01  1.1048691778015916e+02  7.7326476631929040e+01  1.0868059123390178e+02  7.4251607255235612e+01  8.1161246579567617e+01  7.9210456842810245e+01  4.2485489031602306e+01  4.3913074459382294e+01  4.5942927986397791e+01  4.6524290954824082e+01  4.7865384183647706e+01  2.8506877778710674e+01  7.4058916602138751e+01  2.7750884672028178e+01  3.7872208760074720e+01  1.3993547551854834e+02  3.4764195804316692e+01  1.5098928856645043e+02  3.5706303493953186e+01  3.5500781273691423e+01  1.4772091646138719e+02  2.7192587549528085e+01  7.3096957896768814e+01  2.9115266947535968e+01  7.3348862034012839e+01  7.3285839618594309e+01  1.0696367442441925e+02  8.3886402569978799e+01  7.4001285411801248e+01  1.0950304879156590e+02  4.9053608376853688e+01  2.9916805131402018e+01  6.9418901085942110e+01  1.1879388686423592e+02  3.4145887138847669e+01  3.4766357253317054e+01  5.0585742453378437e+01  2.8952929178403696e+01  4.5167969163318197e+01  7.8003684760947735e+01  7.6710473434822717e+01  1.1426745085869419e+02  1.3162923584167712e+02  6.5242108482394244e+01  7.7573450516304561e+01  4.6894703037494352e+01  4.4931541952127247e+01  4.6076079714243328e+01  3.6912534139567725e+01  3.7069753602532657e+01  2.7612183903496380e+01  1.4853078110360829e+02  1.3578843324788545e+02  3.3073827282023124e+01  7.1389958711818878e+01  1.1893712008282387e+02  4.0781591655372551e+01  7.3594056048666260e+01  3.5705970513741853e+01  3.8790042082564511e+01  4.9496217692392626e+01  9.4603677568914534e+01  3.9011280855729474e+01  5.7293053492076886e+01  1.5032864964266940e+02  3.5045209679830613e+01  2.7305563531175181e+01  7.3148345167731264e+01  5.8580884437447963e+01  3.6643721224994245e+01  8.6625493269459085e+01  7.3528497860120908e+01  7.3613676739030510e+01  3.6869091785705955e+01  3.6728635140390487e+01  6.2675258112854756e+01  1.4227418565915943e+02  1.4040380391158718e+02  1.4418329313569026e+02  8.8268897761324666e+01  8.7571800003558181e+01  1.3646937100668427e+02  5.0537495733080853e+01  7.4859704657512339e+01  7.3558564188706541e+01  3.9598183863050060e+01  5.2512331724780331e+01  4.7408229519593448e+01  9.6526782043874519e+01  3.9771256840584805e+01  2.8298067922968183e+01  3.6356139204339840e+01  3.5330627555071992e+01  7.0820159744138408e+01  4.6447213335763756e+01  4.2397947099228936e+01  8.0334182474775332e+01  7.9876014336876963e+01  4.0289738869149552e+01  4.1197279190715648e+01  1.0079261004653270e+02  1.0294292122318137e+02  5.2394191363789268e+01  3.1246047521883458e+01  4.6890444346561551e+01  6.1012524399947452e+01  1.0844154722577893e+02  6.3440428642571000e+01  1.2293899968964563e+02  6.8770734868835518e+01  7.1158692044585138e+01  7.3561761394213733e+01  1.1064240820647831e+02  1.1570388348508409e+02  7.2389691427756560e+01  4.4087653691077399e+01  4.4986702035502773e+01  1.1157984494553781e+02  7.4777045781326166e+01  1.0794728382162430e+02  1.2220509389006452e+02  7.0431436217336966e+01  7.7462336718319023e+01  4.6644389746556605e+01  3.8138123563875169e+01  3.8249198147762719e+01  9.3908129239923284e+01  9.3117786598659990e+01  1.3030783576127021e+02  3.6637551763547052e+01  3.6188694089591969e+01  3.4945726917983450e+01  9.3704763914069773e+01  3.9119766524976811e+01  4.8241513113578684e+01  9.2916161145077737e+01  5.1150432397930750e+01  5.2855571796639403e+01  4.8287258747113533e+01  8.2655652164959562e+01  8.1065824217829075e+01  5.1627515587419396e+01  5.7629755565240579e+01  2.9072885036389117e+01  1.3550493475137458e+02  4.2903395515553470e+01  7.4617415936495817e+01  3.0904560189197806e+01  3.0073438574393808e+01  4.4781386398964273e+01  4.2912439161024430e+01  4.1219407053650322e+01  7.3249088028156024e+01  9.9956179998942403e+01  1.0198150478295133e+02  4.1151661062070133e+01  4.1738983806901935e+01  5.8783869524933117e+01  7.0551910684291087e+01  7.9244694230464361e+01  6.5744136744368177e+01  3.9701134240173026e+01  3.6014598021820717e+01  3.8009749724557004e+01  7.3760475898052690e+01  7.3594342734424970e+01  2.7113140358925804e+01  3.4627605274064727e+01  1.5146322983745929e+02  7.3058562389367069e+01  8.2418566837330346e+01  6.4558602649148000e+01  1.0111175680643611e+02  5.3466236245575651e+01  3.8565376347290261e+01  4.0845467513289762e+01  7.9543173756937875e+01  8.0722435208805123e+01  1.0777360708592211e+02  4.4646708805965169e+01  3.1426323426387558e+01  3.0945472045526039e+01  3.0196673990747591e+01  3.1447727775215377e+01  4.1837760064746874e+01  1.0178349138161811e+02  8.1582641900877036e+01  4.6577444358116168e+01  4.6407458564982420e+01  4.7058321876070650e+01  4.0992287891761897e+01  3.6687671176237075e+01  8.8905770798556219e+01  8.7857341821118638e+01  1.2893635797613902e+02  1.0655591987568999e+02  5.7990522573998938e+01  1.3493186440942586e+02  7.5276633152123210e+01  6.3147525194738073e+01  4.3020265978892070e+01  1.4052592061659539e+02  8.5451302239731902e+01  3.3968453573160531e+01  3.4128113770207840e+01  2.8896717917731245e+01  7.4278244393988729e+01  1.2380497402969669e+02  6.7674249987721865e+01  7.3620595648185898e+01  7.4035781524514661e+01  7.3936833296449819e+01  9.8631708631285548e+01  3.9725637565985572e+01  1.4444108119210773e+02  2.9886709166050991e+01  1.0680520473678392e+02  5.8634777163168955e+01  7.3803328292888636e+01  3.7180907111620876e+01  3.4749422336476428e+01  5.2749438049210802e+01  1.0603134515583992e+02  4.3797919637445347e+01  1.1854684936868509e+02  4.1417531586491215e+01  2.9033046950598585e+01  7.4510464417515962e+01  5.8361398464771185e+01  1.0413257817952396e+02  3.9089979354833311e+01  8.0188324453415717e+01  3.4772996653647354e+01  7.3085842553770362e+01  1.5112868247336738e+02  2.7168560320836086e+01  7.0844726689128635e+01  4.4751148286788684e+01  3.0498311857723156e+01  4.1667680266338643e+01  7.4524296110936589e+01  5.7245541154845007e+01  3.8935976439290584e+01  4.2287164289671068e+01  1.3753786183717835e+02  7.6122549017003507e+01  7.4129634436455618e+01  7.3792977078891553e+01  4.3827811930950944e+01  6.0716923918887922e+01  6.4172288939443590e+01  7.4169790485434845e+01  3.8335409810085160e+01  7.3934845514625465e+01  4.2848196989343130e+01  7.6883723052873535e+01  1.1466996759537135e+02  8.1207297722381298e+01  3.3071681654452952e+01  1.1729394793988168e+02  4.8346558130739297e+01  3.2568107745488426e+01  3.4348945582684181e+01  3.4077856171699985e+01  4.8779883351359778e+01  4.7384435927222725e+01  2.9280968382446304e+01  7.8776204694176315e+01  1.2271675145662327e+02  6.7014590463607846e+01  4.8275445164422067e+01  3.6137190896952241e+01  8.0015648654992233e+01  7.3740896893701176e+01  2.8677010664669222e+01  1.1258996920739867e+02  7.3211903228711876e+01  7.9871434693208485e+01  4.6646585134655147e+01  8.0317837200195200e+01  7.7524911544961569e+01  1.2757654678568161e+02  3.7667622622593470e+01  7.3617671267166557e+01  7.4061372571816989e+01  3.8245081333322830e+01  3.7701478297801401e+01  3.7672995868090837e+01  2.8932775613539356e+01  1.4268485552899938e+02  6.4577973358858443e+01  1.1358485167716326e+02  4.6601126926458932e+01  7.9210248856085229e+01  7.2515610941611413e+01  6.1828504417562456e+01  8.6772611985416290e+01  1.0895443945418452e+02  1.1670591930463446e+02  4.0695792163714415e+01  7.3363958295450090e+01  3.6072572788558460e+01  3.1829612361990780e+01  7.6844726973824606e+01  5.2853660037319052e+01  1.3352628803995751e+02  3.9676190210000755e+01  1.2948673930457568e+02  1.3215028512984330e+02  2.9577298464566560e+01  2.9249015303733543e+01  1.3924251934434946e+02  1.3945070758445033e+02  9.7526399464114391e+01  5.3476602982948769e+01  4.2895331789775611e+01  4.3597364981644340e+01  5.3358249038357464e+01  4.9479400749292964e+01  4.7675462046504748e+01  2.8432824531377850e+01  4.5866330440082407e+01  5.7694932101935485e+01  1.0941231419220809e+02  1.0121369896187397e+02  4.3570851532820100e+01  4.0386958461565001e+01  4.6150861748233936e+01  5.1936268484866517e+01  3.5373490418566007e+01  1.0759794302125562e+02  8.2404075256573748e+01  7.3731485069479746e+01  7.9677257299412091e+01  7.8908945243234129e+01  1.1287875262080523e+02  2.7934557328645919e+01  1.4664350085132364e+02  1.4566691471655813e+02  1.4577424517617069e+02  2.8186042096018074e+01  2.7800290566348348e+01  3.1852789814815864e+01  7.2109310219338241e+01  3.3069618664382304e+01  8.5501906841742453e+01  3.5204950455181432e+01  3.6680955811865566e+01  3.6313968080988815e+01  7.3550826097021385e+01  7.3432858201785677e+01  7.3497966158690886e+01  4.6383754254238724e+01  1.4748135912332202e+02  7.3370645803725168e+01  3.5819180469118798e+01  2.9851124550616788e+01  7.5980238023312751e+01  4.8818990508045481e+01  7.1666263833450472e+01  1.1194724753425825e+02  7.7828247406018633e+01  3.8001737772543507e+01  7.4112878865982850e+01  3.7394985125758112e+01  3.3543057689113454e+01  3.3810413718340754e+01  3.2398967882134350e+01  1.2154975972850021e+02  4.7896114671260975e+01  1.3832274649895194e+02  3.2813249881578088e+01  7.3585565567096879e+01  3.8699900763514918e+01  8.1669343427452333e+01  7.5976833519370260e+01  2.8052208407434051e+01  5.0047064975171146e+01  1.3809487065292851e+02  3.5084637144100199e+01  3.4655902722324491e+01  3.9664772511822697e+01  1.0269369443717737e+02  6.8176941032559498e+01  3.9260417991690545e+01  4.9628900851621772e+01  4.4966409970787844e+01  4.4823090706117647e+01  1.2343783171242703e+02  9.7474834037127295e+01  6.4375910327951445e+01  4.7069412575158715e+01  4.1700827731897533e+01  4.5811704112190334e+01  4.8208652903961706e+01  4.7392435335620988e+01  7.2757966053103047e+01  7.5377695455113297e+01  6.6098468049177114e+01  3.8004324464438874e+01  7.4100958257228797e+01  3.9303417119259130e+01  1.1321234606595795e+02  7.5147269422470345e+01  8.1505897771300994e+01  8.1332194229649190e+01  8.4243416911661370e+01  4.3005544347481951e+01  5.5939629979404963e+01  3.6134200785102770e+01  3.6576393095365802e+01  3.5713341618858202e+01  5.1887217580734692e+01  2.9262313403374943e+01  3.7698351158407895e+01  5.6067255268515623e+01  1.3855721343536996e+02  1.4124663521625729e+02  1.2862501133999962e+02  5.4261683634803795e+01  6.8902657272333173e+01  6.6585403173290885e+01  4.2955655137527501e+01  4.2569768801302466e+01  1.2521643850424520e+02  1.0352859262239456e+02  2.9410711425837363e+01  8.5743805873150066e+01  8.9723934928834183e+01  4.1508053558059913e+01  1.2136183493829718e+02  3.8721956730107614e+01  9.0537366725852578e+01  3.7999928085122569e+01  9.1027524253130551e+01  5.4873572892740732e+01  5.6481851126950730e+01  4.3979598884458618e+01  1.0550231905818728e+02  4.3477373817409308e+01  3.7917898589389786e+01  4.6590620728243053e+01  4.4954110975787962e+01  1.0663410320023283e+02  4.8023005461372698e+01  5.4906175917640240e+01  9.2527874552186617e+01  5.5741302205113257e+01  3.8249635082565959e+01  9.0415552204822248e+01  2.7796740893310133e+01  1.4707958004440724e+02  8.388