<?xml version="1.0"?>
<VTKFile type="UnstructuredGrid"  version="0.1"  >
<UnstructuredGrid>
<Piece  NumberOfPoints="2331" NumberOfCells="4248">
<Points>
<DataArray  type="Float64"  NumberOfComponents="3"  format="ascii">0 0.3 0  0 0 0  0.04999999999999999 0 0  0.0514582251803892 0.02410733605106462 0  0.0558116365147896 0.04786313285751154 0  0.06299675146291706 0.07092097740850717 0  0.07290879486935808 0.09294463440875382 0  0.08540322682126872 0.1136129493462312 0  0.1002978503657798 0.132624531648159 0  0.117375468351841 0.1497021496342203 0  0.1363870506537689 0.1645967731787313 0  0.1570553655912463 0.177091205130642 0  0.1790790225914929 0.187003248537083 0  0.2021368671424885 0.1941883634852104 0  0.2258926639489354 0.1985417748196108 0  0.25 0.2 0  0.2741073360510646 0.1985417748196108 0  0.2978631328575116 0.1941883634852104 0  0.3209209774085071 0.187003248537083 0  0.3429446344087537 0.177091205130642 0  0.3636129493462312 0.1645967731787313 0  0.3826245316481591 0.1497021496342202 0  0.3997021496342202 0.132624531648159 0  0.4145967731787313 0.1136129493462312 0  0.427091205130642 0.09294463440875371 0  0.4370032485370829 0.07092097740850713 0  0.4441883634852104 0.04786313285751155 0  0.4485417748196108 0.02410733605106461 0  0.45 0 0  0.55 0 0  0.5514582251803892 0.02410733605106462 0  0.5558116365147896 0.04786313285751154 0  0.5629967514629171 0.07092097740850717 0  0.5729087948693581 0.09294463440875382 0  0.5854032268212688 0.1136129493462312 0  0.6002978503657798 0.132624531648159 0  0.617375468351841 0.1497021496342203 0  0.6363870506537689 0.1645967731787313 0  0.6570553655912463 0.177091205130642 0  0.6790790225914929 0.187003248537083 0  0.7021368671424885 0.1941883634852104 0  0.7258926639489354 0.1985417748196108 0  0.75 0.2 0  0.7741073360510646 0.1985417748196108 0  0.7978631328575116 0.1941883634852104 0  0.8209209774085071 0.187003248537083 0  0.8429446344087537 0.177091205130642 0  0.8636129493462312 0.1645967731787313 0  0.8826245316481591 0.1497021496342202 0  0.8997021496342202 0.132624531648159 0  0.9145967731787312 0.1136129493462312 0  0.927091205130642 0.09294463440875371 0  0.9370032485370829 0.07092097740850713 0  0.9441883634852104 0.04786313285751155 0  0.9485417748196108 0.02410733605106461 0  0.95 0 0  1 0 0  1 0.3 0  0.9758926639489353 0.3014582251803892 0  0.9521368671424885 0.3058116365147896 0  0.9290790225914928 0.3129967514629171 0  0.9070553655912461 0.3229087948693581 0  0.8863870506537688 0.3354032268212687 0  0.867375468351841 0.3502978503657798 0  0.8502978503657798 0.367375468351841 0  0.8354032268212687 0.3863870506537689 0  0.822908794869358 0.4070553655912464 0  0.8129967514629171 0.4290790225914929 0  0.8058116365147896 0.4521368671424885 0  0.8014582251803892 0.4758926639489354 0  0.8 0.4999999999999999 0  0.8014582251803892 0.5241073360510646 0  0.8058116365147896 0.5478631328575115 0  0.8129967514629171 0.5709209774085071 0  0.8229087948693581 0.5929446344087538 0  0.8354032268212688 0.6136129493462312 0  0.8502978503657798 0.632624531648159 0  0.867375468351841 0.6497021496342202 0  0.8863870506537689 0.6645967731787313 0  0.9070553655912463 0.677091205130642 0  0.9290790225914929 0.6870032485370829 0  0.9521368671424885 0.6941883634852104 0  0.9758926639489354 0.6985417748196108 0  1 0.7 0  1 1 0  0.95 1 0  0.9485417748196108 0.9758926639489353 0  0.9441883634852104 0.9521368671424885 0  0.9370032485370829 0.9290790225914928 0  0.927091205130642 0.9070553655912463 0  0.9145967731787312 0.8863870506537688 0  0.8997021496342201 0.8673754683518409 0  0.882624531648159 0.8502978503657798 0  0.863612949346231 0.8354032268212686 0  0.8429446344087537 0.822908794869358 0  0.8209209774085071 0.8129967514629171 0  0.7978631328575114 0.8058116365147896 0  0.7741073360510646 0.8014582251803892 0  0.75 0.8 0  0.7258926639489353 0.8014582251803892 0  0.7021368671424885 0.8058116365147896 0  0.6790790225914928 0.8129967514629171 0  0.6570553655912461 0.8229087948693581 0  0.6363870506537688 0.8354032268212688 0  0.617375468351841 0.8502978503657798 0  0.6002978503657798 0.867375468351841 0  0.5854032268212687 0.8863870506537689 0  0.572908794869358 0.9070553655912463 0  0.5629967514629171 0.9290790225914929 0  0.5558116365147896 0.9521368671424885 0  0.5514582251803892 0.9758926639489355 0  0.55 0.9999999999999999 0  0.45 0.9999999999999999 0  0.4485417748196108 0.9758926639489353 0  0.4441883634852104 0.9521368671424885 0  0.4370032485370829 0.9290790225914928 0  0.427091205130642 0.9070553655912463 0  0.4145967731787313 0.8863870506537688 0  0.3997021496342201 0.8673754683518409 0  0.382624531648159 0.8502978503657798 0  0.363612949346231 0.8354032268212686 0  0.3429446344087536 0.822908794869358 0  0.3209209774085071 0.8129967514629171 0  0.2978631328575115 0.8058116365147896 0  0.2741073360510646 0.8014582251803892 0  0.25 0.8 0  0.2258926639489353 0.8014582251803892 0  0.2021368671424885 0.8058116365147896 0  0.1790790225914928 0.8129967514629171 0  0.1570553655912462 0.8229087948693581 0  0.1363870506537688 0.8354032268212688 0  0.117375468351841 0.8502978503657798 0  0.1002978503657797 0.867375468351841 0  0.08540322682126869 0.8863870506537689 0  0.07290879486935797 0.9070553655912463 0  0.06299675146291703 0.9290790225914929 0  0.05581163651478957 0.9521368671424885 0  0.0514582251803892 0.9758926639489355 0  0.04999999999999999 0.9999999999999999 0  0 1 0  -0 0.7000000000000001 0  0.0241073360510646 0.6985417748196108 0  0.04786313285751161 0.6941883634852104 0  0.07092097740850711 0.6870032485370829 0  0.09294463440875372 0.677091205130642 0  0.1136129493462312 0.6645967731787312 0  0.1326245316481591 0.6497021496342202 0  0.1497021496342202 0.632624531648159 0  0.1645967731787313 0.6136129493462312 0  0.177091205130642 0.5929446344087537 0  0.187003248537083 0.5709209774085071 0  0.1941883634852104 0.5478631328575115 0  0.1985417748196108 0.5241073360510646 0  0.2 0.5 0  0.1985417748196108 0.4758926639489353 0  0.1941883634852104 0.4521368671424885 0  0.1870032485370829 0.4290790225914928 0  0.177091205130642 0.4070553655912463 0  0.1645967731787313 0.3863870506537688 0  0.1497021496342202 0.3673754683518409 0  0.132624531648159 0.3502978503657798 0  0.113612949346231 0.3354032268212686 0  0.09294463440875361 0.322908794869358 0  0.07092097740850711 0.3129967514629171 0  0.04786313285751148 0.3058116365147896 0  0.02410733605106464 0.3014582251803892 0  0.6985417748196108 0.5241073360510646 0  0.7 0.5 0  0.6985417748196108 0.4758926639489353 0  0.6941883634852104 0.4521368671424885 0  0.6870032485370829 0.4290790225914928 0  0.677091205130642 0.4070553655912463 0  0.6645967731787312 0.3863870506537688 0  0.6497021496342201 0.3673754683518409 0  0.632624531648159 0.3502978503657798 0  0.613612949346231 0.3354032268212686 0  0.5929446344087537 0.322908794869358 0  0.5709209774085071 0.3129967514629171 0  0.5478631328575114 0.3058116365147896 0  0.5241073360510646 0.3014582251803892 0  0.4999999999999999 0.3 0  0.4758926639489353 0.3014582251803892 0  0.4521368671424885 0.3058116365147896 0  0.4290790225914928 0.3129967514629171 0  0.4070553655912462 0.3229087948693581 0  0.3863870506537688 0.3354032268212687 0  0.367375468351841 0.3502978503657798 0  0.3502978503657798 0.367375468351841 0  0.3354032268212687 0.3863870506537689 0  0.322908794869358 0.4070553655912464 0  0.3129967514629171 0.4290790225914929 0  0.3058116365147896 0.4521368671424885 0  0.3014582251803892 0.4758926639489354 0  0.3 0.4999999999999999 0  0.3014582251803892 0.5241073360510646 0  0.3058116365147896 0.5478631328575115 0  0.3129967514629171 0.5709209774085071 0  0.3229087948693581 0.5929446344087538 0  0.3354032268212687 0.6136129493462312 0  0.3502978503657798 0.632624531648159 0  0.367375468351841 0.6497021496342202 0  0.3863870506537689 0.6645967731787313 0  0.4070553655912463 0.677091205130642 0  0.4290790225914929 0.6870032485370829 0  0.4521368671424885 0.6941883634852104 0  0.4758926639489354 0.6985417748196108 0  0.4999999999999999 0.7 0  0.5241073360510646 0.6985417748196108 0  0.5478631328575116 0.6941883634852104 0  0.5709209774085071 0.6870032485370829 0  0.5929446344087537 0.677091205130642 0  0.6136129493462312 0.6645967731787312 0  0.6326245316481591 0.6497021496342202 0  0.6497021496342202 0.632624531648159 0  0.6645967731787312 0.6136129493462312 0  0.677091205130642 0.5929446344087537 0  0.6870032485370829 0.5709209774085071 0  0.6941883634852104 0.5478631328575115 0  0 0.15 0  1 0.15 0  1 0.85 0  0 0.8500000000000001 0  0 0.075 0  1 0.075 0  1 0.925 0  0 0.925 0  0.5 0.8127595604293815 0  0.5069440078039168 0.190422209288238 0  0.25 0.3127595604293815 0  0.756944007803917 0.3095777907117619 0  0.756944007803917 0.6904222092882382 0  0.25 0.6872404395706185 0  0 0.225 0  0.4255768646051012 0.2241073097134061 0  1 0.7749999999999999 0  0.6773391559270888 0.2766774022734219 0  1 0.225 0  0.6755768646051011 0.7241073097134062 0  0 0.7750000000000001 0  0.5818971135297744 0.2287925518358889 0  0.8318971135297746 0.728792551835889 0  0.1659156081861886 0.7301636995921477 0  0.08376842746533225 0.2299656297760495 0  0.4236002201977974 0.7746535834185855 0  0.0840843918138115 0.7698363004078523 0  0.3340843918138113 0.7301636995921477 0  0.3340843918138114 0.2698363004078523 0  0.9159156081861887 0.2301636995921477 0  0.5840843918138116 0.7698363004078522 0  0.1659156081861887 0.2698363004078523 0  0.9162315725346678 0.7700343702239506 0  0.8340843918138114 0.2698363004078523 0  0.75 0.6146645247768686 0  0.5 0.1125158665330878 0  0.75 0.3874841334669124 0  0.2504983345544904 0.6122915843562002 0  0.2504983345544902 0.3877084156437999 0  0.5 0.8879783056303169 0  0.7005361650220154 0.3333055947145943 0  0.70416808765371 0.6599554817221275 0  0.449930214263529 0.1678187287522426 0  0.2247310981387008 0.7415600637745463 0  0.5155081196221678 0.7563797802146907 0  0.2752689018612993 0.2584399362254537 0  0.05605196690611226 0.8246131191226815 0  0.9439480330938878 0.1
[...]
<PointData  Scalars="Temperature"> 
<DataArray  type="Float64"  Name="Temperature"  format="ascii">8.3483680260229718e+01  8.5448688010894628e+01  8.5445442739003255e+01  8.5400706079657766e+01  8.5275596726835033e+01  8.5080999077904565e+01  8.4820627216295392e+01  8.4497066243295805e+01  8.4113295299236015e+01  8.3663521942767417e+01  8.3134879329001208e+01  8.2533002953053597e+01  8.1874861436775390e+01  8.1174323259960360e+01  8.0444587892842051e+01  7.9703191149302100e+01  7.8951391298202608e+01  7.8185822103545661e+01  7.7421423012780281e+01  7.6654655914488643e+01  7.5923765975463482e+01  7.5254851785050818e+01  7.4675946148142501e+01  7.4225575447567195e+01  7.3900739211382273e+01  7.3697223115459849e+01  7.3583102797109802e+01  7.3534039547925047e+01  7.3521303244277121e+01  7.3382721325838887e+01  7.3346131169900787e+01  7.3231544444910071e+01  7.3014405080475100e+01  7.2673690066086877e+01  7.2177552540081138e+01  7.1523567107463208e+01  7.0723085192468844e+01  6.9802819555028137e+01  6.8803893176302395e+01  6.7783493252403886e+01  6.6798307062141447e+01  6.5895128531557901e+01  6.5100864221885203e+01  6.4423217037021544e+01  6.3856180287215196e+01  6.3393325940468948e+01  6.3010141752017795e+01  6.2696203921100526e+01  6.2440917346083445e+01  6.2230238744586323e+01  6.2057973107066680e+01  6.1915848872377843e+01  6.1802775210480270e+01  6.1718604043205922e+01  6.1664505630076945e+01  6.1645193029152978e+01  6.1643623960230009e+01  6.2416786755387875e+01  6.2447343213607930e+01  6.2534555680721979e+01  6.2665457678401218e+01  6.2815310236269788e+01  6.2951539947510987e+01  6.3031724242173134e+01  6.3014605075737322e+01  6.2867066936142990e+01  6.2575266668030608e+01  6.2113698618230295e+01  6.1517155937458817e+01  6.0818447574441734e+01  6.0068578679111305e+01  5.9322241538915982e+01  5.8620996705256367e+01  5.7969980248483701e+01  5.7374545569505862e+01  5.6809390481998484e+01  5.6266056780478763e+01  5.5748768010752059e+01  5.5252513321157082e+01  5.4803098156954135e+01  5.4419258862533695e+01  5.4127099303181559e+01  5.3946326824656843e+01  5.3882842697875169e+01  5.2495530870871882e+01  5.2497662026412655e+01  5.2528997200872574e+01  5.2616898419317465e+01  5.2753749391436223e+01  5.2937585503082275e+01  5.3166285697929197e+01  5.3440156754394984e+01  5.3763338333251646e+01  5.4138245692774859e+01  5.4569425528274010e+01  5.5050410980436190e+01  5.5564739853408987e+01  5.6109297196061803e+01  5.6662551349632402e+01  5.7237446458636093e+01  5.7826590921750345e+01  5.8427251604284805e+01  5.9027248525052791e+01  5.9611248389211816e+01  6.0137803726964393e+01  6.0598242970046734e+01  6.0951697492400633e+01  6.1208255997115387e+01  6.1363612454219805e+01  6.1444124947522361e+01  6.1479426217020830e+01  6.1487771951617042e+01  6.1602380847104378e+01  6.1637581966208778e+01  6.1741514211673568e+01  6.1930354232635750e+01  6.2227087762548408e+01  6.2660318687899696e+01  6.3225310674795743e+01  6.3920739984785499e+01  6.4712001890936634e+01  6.5573123465058515e+01  6.6443036455871962e+01  6.7268445533279731e+01  6.8016528254333167e+01  6.8644092513436746e+01  6.9153694060059678e+01  6.9543936410941285e+01  6.9836971176819560e+01  7.0052638851629681e+01  7.0212160375554134e+01  7.0331698515221660e+01  7.0422181597832548e+01  7.0491248491345104e+01  7.0546044676922378e+01  7.0587925285177505e+01  7.0618985823992546e+01  7.0637905306521702e+01  7.0645028336641644e+01  7.0645257285643481e+01  7.0413632340804867e+01  7.0405414328745678e+01  7.0384370442734280e+01  7.0360217441746272e+01  7.0349683241217249e+01  7.0378300106873340e+01  7.0478388684185745e+01  7.0683757343132967e+01  7.1029939190097451e+01  7.1532493142622499e+01  7.2206546098115751e+01  7.3033678627178233e+01  7.3982157934050676e+01  7.4986507620825250e+01  7.5990255757847265e+01  7.6943998362403761e+01  7.7827168252930932e+01  7.8644197919172086e+01  7.9422020838841107e+01  8.0170662350088392e+01  8.0893961860570926e+01  8.1575059203220221e+01  8.2198359746031727e+01  8.2733402810504430e+01  8.3136383658929461e+01  8.3393639830033777e+01  5.9431317310080878e+01  6.0158604763477278e+01  6.0951019389167762e+01  6.1774860146839323e+01  6.2611942038844560e+01  6.3466051634935965e+01  6.4358158001793768e+01  6.5308575108687350e+01  6.6334272094499198e+01  6.7409962293017699e+01  6.8524143524223419e+01  6.9658819660667291e+01  7.0772243474705306e+01  7.1851703882690529e+01  7.2886008405295016e+01  7.3868493647911023e+01  7.4787976687171110e+01  7.5642148440450910e+01  7.6406118163210522e+01  7.7057102803236432e+01  7.7541018559837909e+01  7.7837720083413487e+01  7.7908519747906738e+01  7.7741793704312585e+01  7.7324122376500952e+01  7.6687333952847581e+01  7.5860979423322192e+01  7.4897996466614956e+01  7.3870800845397170e+01  7.2835355939731201e+01  7.1830185782455786e+01  7.0837605441553933e+01  6.9872190073062384e+01  6.8907214832488933e+01  6.7922000261861626e+01  6.6924094689477030e+01  6.5905291589156079e+01  6.4908626275209301e+01  6.3933056860342852e+01  6.3010084400995957e+01  6.2134115544037861e+01  6.1312693674921974e+01  6.0544548504057261e+01  5.9846746272976930e+01  5.9218926026561768e+01  5.8690120510982112e+01  5.8288947735052822e+01  5.8034096674664141e+01  5.7953684111378166e+01  5.8059727723333040e+01  5.8353810769764770e+01  5.8820583806219005e+01  8.4498576277597337e+01  6.2043259281632125e+01  5.3162238191927095e+01  7.0505804679605575e+01  8.5157597448692130e+01  6.1768872339479813e+01  5.2699809065217082e+01  7.0600932169171415e+01  6.1917148603708220e+01  7.2914501678275613e+01  7.9254072219881522e+01  6.4215868784392228e+01  5.6850873930983212e+01  6.9604450649066777e+01  8.3830375636087624e+01  7.5056953022623404e+01  5.3634175924273151e+01  6.6562252830852970e+01  6.2297491171377970e+01  5.8036453315527233e+01  7.0434286120456861e+01  7.0423066748782048e+01  5.5451919130289802e+01  7.0015000157951405e+01  8.3232426061149781e+01  6.4015246615140939e+01  7.0325402080291639e+01  6.7177876220986747e+01  7.7654373580130880e+01  6.2564981931337485e+01  6.0077836540029203e+01  8.1372618355431641e+01  5.4063401529352994e+01  6.3353662209690171e+01  5.7643161514422992e+01  7.3288070321625497e+01  6.3031307151861057e+01  7.1163265639808117e+01  7.8235625742222481e+01  6.1712743702710746e+01  6.4929029238882251e+01  5.7635467123398556e+01  7.4169307772381046e+01  6.9342015943457781e+01  6.1646500748986817e+01  7.8993001961159806e+01  7.0432530727129816e+01  6.2236839310905339e+01  8.4053767140804581e+01  5.3508120516990807e+01  7.3450396499809784e+01  5.7076637223650160e+01  6.5255068912154329e+01  6.2933053450674329e+01  7.0279558973723468e+01  8.0182644386447052e+01  6.8790623141490116e+01  7.8226530546403353e+01  6.0841416988789916e+01  7.3407672826498754e+01  6.1679672170528875e+01  5.8915387015675371e+01  7.6859853281298484e+01  7.3251138190959637e+01  6.1543889330269131e+01  6.1592604033569820e+01  8.0218148548008628e+01  6.8441240325467334e+01  7.1676310441083842e+01  5.6778129047753502e+01  6.3372172305608494e+01  6.8460257129753941e+01  7.6294681976931457e+01  7.6698932610487262e+01  5.8912155854384245e+01  5.9233122826477100e+01  6.8103235157494964e+01  5.6218262766788541e+01  6.4135906045376771e+01  6.0273821946005832e+01  7.3452795711730957e+01  7.5151614687514467e+01  6.5572821752090846e+01  6.5788715490319760e+01  7.1965421442418446e+01  5.4667308596127548e+01  5.4736106791594480e+01  6.2742484373108532e+01  8.2544727355835718e+01  7.0399458800382007e+01  6.2773728302622445e+01  7.0111257050507859e+01  8.2195335968740281e+01  7.0266368526568172e+01  6.2427436151441817e+01  6.2984070489332403e+01  5.3924163584460601e+01  8.3421603927278596e+01  6.2013963166364299e+01  5.3067342011712050e+01  8.4636855903264518e+01  7.0512152316441473e+01  6.3095509935350684e+01  5.6179905924017731e+01  7.2558630812802775e+01  5.7411977464753186e+01  5.9998111287797641e+01  6.7481906567099941e+01  8.1219977119628453e+01  6.2506311972421912e+01  7.7487739703667543e+01  7.0293611079118861e+01  7.0315756820335736e+01  8.3477470490632328e+01  5.3939154007095915e+01  7.0891086660510950e+01  7.9142419445848219e+01  6.1466698753313779e+01  5.5617009370676996e+01  7.8548219118030659e+01  6.9996651774322473e+01  6.6574462688113854e+01  6.6525192027224406e+01  6.4211278287715857e+01  7.4721020029031152e+01  5.8344691597488030e+01  7.5438450007066209e+01  5.8027911682375894e+01  6.2294396788397698e+01  6.3696650754653810e+01  7.0244798307250363e+01  6.5259483160742604e+01  5.5540950836218649e+01  6.9873956329383631e+01  6.9683739005777468e+01  7.7812698181166979e+01  6.7365020901047856e+01  8.1148364512456851e+01  6.3115398044129378e+01  6.0195801232967582e+01  7.3884533982301207e+01  8.3774018280657245e+01  6.3520463408568638e+01  6.2346251187175554e+01  7.0408519102269111e+01  6.1215850929561341e+01  7.0464062911902644e+01  6.2181057497724481e+01  6.3763962674444237e+01  5.3399239510781634e+01  7.3836176511736113e+01  6.3934401394985819e+01  6.3805091330914159e+01  7.3395820841415102e+01  8.4149384444992819e+01  5.8072923380166500e+01  5.8041737057089371e+01  5.7167957092235994e+01  7.2172045014328958e+01  7.8181163441540733e+01  7.0338298575155008e+01  7.8036649410145543e+01  7.0351903036511843e+01  7.3562228440639871e+01  7.3136699321225478e+01  6.2294999552363173e+01  6.2711490678069822e+01  6.1210657359939084e+01  6.1474897137875445e+01  6.1906557064869460e+01  5.3411124770178532e+01  7.0418772431836416e+01  5.2916952601671561e+01  6.2378873112202015e+01  8.3585741587669659e+01  6.1676869046575256e+01  8.5371851687582236e+01  6.1898842114686154e+01  6.1850790680503458e+01  8.4849478835542527e+01  5.2549269562647041e+01  7.0633438873436390e+01  5.3807777532163030e+01  7.0555232599819547e+01  7.0570584877560592e+01  7.7511592524222280e+01  7.1990207710895390e+01  6.9776479139079015e+01  7.8418742805543914e+01  6.2195381737703336e+01  5.4293272663034628e+01  6.8445654246584525e+01  8.0040047363060339e+01  5.6487454648075612e+01  5.7334278028948823e+01  6.2557145403669523e+01  5.3695584589122149e+01  6.0783897482558913e+01  7.2383622377577041e+01  7.0334656921740830e+01  7.9075823926044237e+01  8.2184813570818434e+01  6.9318568926070299e+01  7.2537530726657209e+01  6.4437187473383830e+01  6.3618959503807140e+01  6.1071436468164123e+01  5.7864727302372195e+01  5.8008957455884733e+01  5.2825203271305107e+01  8.4978997412271468e+01  8.2891719157845174e+01  5.6225082501468016e+01  6.8873251811159349e+01  7.9985583098840266e+01  6.3002960928160007e+01  7.1483154446371756e+01  5.7675305848879866e+01  6.2571388723059890e+01  6.4767709441742312e+01  7.5857545338205796e+01  5.8592005298212911e+01  6.4666779001947035e+01  8.5266480614470140e+01  6.1743490022198699e+01  5.2623833921578985e+01  7.0616883191262900e+01  6.5113644254436650e+01  5.8546858755111742e+01  7.4295309607977501e+01  7.0450814046421215e+01  7.0475092957040204e+01  6.2167891093435642e+01  6.2133588099552760e+01  6.6352348975867528e+01  8.3965063214759809e+01  8.3659106638439951e+01  8.4279052507250000e+01  7.4763400653391827e+01  7.4563861299525158e+01  8.3000237965384500e+01  6.2621898991780192e+01  7.0317011098254454e+01  7.0160796474102483e+01  6.2790285697474353e+01  6.5821789691069611e+01  6.4681269390698034e+01  7.6230546858345775e+01  5.8892784251847992e+01  5.3270768663488361e+01  5.7860615480676010e+01  5.7282940036438987e+01  7.0871855879755174e+01  6.1499662144347354e+01  6.3127109682396856e+01  7.3490571906497053e+01  7.3390816522385720e+01  6.0962713798944051e+01  6.1366236368534885e+01  7.6023393108515393e+01  7.6490307643340543e+01  6.5913007925292476e+01  5.5100847467705307e+01  6.1646788747684461e+01  6.8287199927156749e+01  7.8271934625055891e+01  6.6483607169924156e+01  8.0679054670315097e+01  6.8092572624834133e+01  6.9040511261722273e+01  6.9768607282306931e+01  7.8666371296922264e+01  7.9473585381787800e+01  6.9275397922724537e+01  6.0442505515920530e+01  6.0830453336958428e+01  7.8703071668668699e+01  7.0107700559189666e+01  7.8026389633756636e+01  8.0490691158170264e+01  6.8481578319782031e+01  7.0665526931303191e+01  6.1363086973946515e+01  5.9583564186507182e+01  5.9695242112879228e+01  7.4390950519592053e+01  7.4208071996779452e+01  8.1940702780726255e+01  5.7630081301752668e+01  5.7392592354512651e+01  5.6971187569276978e+01  7.5619510298960762e+01  5.8577528703239352e+01  6.1845042121429337e+01  7.5502144352851886e+01  6.2874497934412091e+01  6.3346599309502331e+01  6.4604050699057879e+01  7.3396243543827978e+01  7.3167842348376695e+01  6.5782179013307427e+01  6.7343321543461499e+01  5.3760871191453973e+01  8.2846689981330940e+01  6.3062972419567672e+01  7.1876719523556218e+01  5.4806861454775998e+01  5.4336806048391750e+01  6.3741886407805978e+01  6.3385137571460866e+01  6.3166755596246752e+01  6.9905421127577284e+01  7.6757781202181690e+01  7.7131487582283754e+01  5.9362034476532727e+01  5.9579097442063429e+01  6.5098808425228114e+01  7.0757697858916927e+01  7.2996592916551364e+01  6.9493079706233729e+01  6.2783720953800078e+01  5.8119821061814022e+01  6.2420561561841026e+01  7.0376559228817996e+01  7.1372547771951659e+01  5.2496609535004744e+01  6.1644360692879268e+01  8.5447323270062128e+01  7.0645221212667252e+01  7.3557970751573791e+01  6.9090623539662474e+01  7.7002950943140362e+01  6.3570185803043252e+01  5.8390860739976198e+01  6.2970400933851820e+01  7.3274256717289873e+01  7.3533289986047407e+01  7.7636418930563664e+01  6.3988393275414197e+01  5.5181976977099858e+01  5.4876065699252599e+01  5.4440085538222263e+01  5.5136550360536894e+01  5.9611622569686553e+01  7.7150168505188105e+01  7.1536274377854326e+01  6.1553497504036791e+01  6.1504841355533465e+01  6.1655676797709546e+01  5.9302669839888274e+01  5.8666228484961977e+01  7.3223383428542718e+01  7.2945210775027078e+01  8.1714228196435414e+01  7.7906900547537091e+01  6.4901967183911424e+01  8.2743682367097563e+01  7.0040736345243189e+01  6.6469115259422580e+01  6.2418052671104697e+01  8.3682226385395069e+01  7.4276953646103919e+01  5.6815979106839016e+01  5.6753343813301413e+01  5.3642987649534362e+01  6.9559032824375535e+01  8.0859850235401041e+01  6.7821350589398591e+01  6.9975752858738119e+01  7.0154635662788266e+01  7.0236197442451697e+01  7.5494605780043472e+01  6.0546099818532390e+01  8.4319051418814453e+01  5.4241560929108196e+01  7.7372522513501110e+01  6.7496010491914504e+01  7.0441307455286776e+01  6.2233962795037733e+01  5.7241485965943532e+01  6.5786814022260330e+01  7.7762989986516459e+01  6.0373720404059668e+01  7.9814879884119009e+01  6.1661126617533952e+01  5.3752397138440088e+01  7.0330967890503516e+01  6.7496475491027084e+01  7.6829760142755205e+01  6.2662903489338625e+01  7.3353302869087202e+01  6.1678945570809873e+01  7.0636706590197448e+01  8.5394038344689420e+01  5.2533314131685714e+01  6.8853317441353198e+01  6.3390415692261641e+01  5.4649139456939388e+01  6.3229151686295587e+01  7.0198601069966784e+01  6.7285050424025115e+01  6.2592013212413264e+01  5.9770280943745867e+01  8.3181674861988668e+01  7.0418688515142989e+01  7.0306314436453235e+01  6.9391331067384300e+01  6.3709321232434981e+01  6.5719093476654834e+01  6.6726322122766220e+01  7.0395725736517591e+01  6.2472668544580166e+01  7.0420132087539017e+01  6.2667810427146840e+01  7.2260694922583568e+01  7.9343916114470261e+01  7.1312161192625041e+01  5.5954828354322288e+01  7.9648091811641535e+01  6.1823206114086666e+01  5.5759584639349683e+01  5.6631115092679345e+01  5.6572573725238172e+01  6.4906340868896422e+01  6.1782151339693087e+01  5.3897258518556178e+01  7.2967679930584723e+01  8.0704203521513151e+01  6.7695813330426304e+01  6.1982381042029338e+01  5.7927473942655446e+01  7.1043499386778095e+01  7.0241910679909537e+01  5.3519954937320499e+01  7.8927411544289527e+01  6.9334180270369103e+01  7.3404339690907335e+01  6.1584340355844603e+01  7.3501273500879677e+01  7.2673273927107871e+01  8.1521388177902239e+01  6.2351003149809706e+01  7.0391778783049574e+01  7.0363276960994767e+01  6.2462596781844340e+01  6.2343880295529246e+01  6.2338983318727848e+01  5.3656604554557674e+01  8.4035702852334779e+01  6.9236397644096144e+01  7.8813374903104744e+01  6.1461246519849908e+01  7.2708005389358135e+01  7.1168239288586946e+01  6.8433880209214706e+01  7.4251633741607023e+01  7.8000443804660719e+01  7.9671723478888453e+01  6.2909004448371164e+01  7.0536489349862094e+01  6.1984216280722478e+01  5.5308290781736865e+01  7.0451116440806260e+01  6.3269883293237548e+01  8.2496211613498701e+01  6.2732383464125306e+01  8.1827328913344871e+01  8.2287442256544864e+01  5.4091013766384677e+01  5.3891281424679789e+01  8.3469835407293317e+01  8.3502264259315467e+01  7.6370106674813215e+01  6.3557272353103841e+01  6.2194236549785103e+01  6.2920685279248495e+01  6.3464634253523904e+01  6.2226805415200424e+01  6.4706282101617944e+01  5.3361101087570695e+01  6.1146698925285378e+01  6.4832330482077751e+01  7.8249255759168776e+01  7.6106026909274846e+01  6.3276428833976588e+01  6.0965918784431537e+01  6.1331356320410926e+01  6.3002488507220917e+01  5.7416054602566859e+01  7.7728228694523438e+01  7.3772517762035406e+01  7.0437274645797530e+01  7.1130673938348139e+01  7.0867139130427333e+01  7.8749132068880542e+01  5.3037313512172517e+01  8.4676470409666720e+01  8.4518882384518008e+01  8.4534656345018306e+01  5.3192936202509159e+01  5.2946436155388277e+01  5.5479672133026334e+01  6.9406419776698058e+01  5.6066642490453994e+01  7.2402044677175070e+01  5.7663530652380310e+01  6.2123852774650722e+01  6.2039402248790516e+01  7.0475923718759034e+01  7.0529830661878222e+01  7.0506604247863052e+01  6.1453965440458369e+01  8.4810223417132235e+01  7.0545256546048179e+01  6.1925148072477178e+01  5.4243529665672391e+01  7.2189703383468100e+01  6.2189167942366801e+01  7.0880366758746845e+01  7.8624620866888861e+01  7.0554392998171110e+01  6.2404996345563788e+01  7.0414663808448964e+01  5.9078673926317308e+01  5.6450296473499023e+01  5.6511501323901484e+01  5.5744864433482832e+01  8.0496507993074601e+01  6.1809090000669997e+01  8.3314395934285116e+01  5.6024799750545498e+01  7.0261447418015067e+01  6.2587518071899822e+01  7.1521530186889947e+01  7.2106373653518474e+01  5.3113210199787346e+01  6.2521862162152367e+01  8.3276107591883488e+01  5.6901106224452448e+01  6.1651103988672240e+01  5.8814334651173752e+01  7.7293900941052314e+01  6.8027698352497268e+01  6.0341136427199707e+01  6.2309817654001378e+01  6.0735552974240925e+01  6.3032808815741006e+01  8.0741760093908908e+01  7.5237354569791293e+01  6.6881285788130754e+01  6.3900958719090049e+01  6.3044638823645393e+01  6.4085679400669065e+01  6.4401586220475167e+01  6.1689229957840745e+01  6.9684456909561618e+01  7.0364032766281838e+01  6.7249224206688595e+01  6.2406048239261295e+01  7.0411507057004172e+01  6.2684823425783534e+01  7.8936185052621511e+01  6.9898123737395423e+01  7.3571925311199905e+01  7.3475739723368733e+01  7.4025470866976349e+01  6.3595853392127054e+01  6.4229446216565194e+01  5.7590343380851138e+01  5.7656631530136707e+01  5.7282424336301432e+01  6.5574698363842955e+01  5.3868905157389683e+01  6.2354660953936161e+01  6.6835767641676100e+01  8.3352868196617464e+01  8.3797333135810476e+01  8.1691853884052733e+01  6.6491415486128687e+01  6.8090554342005348e+01  6.7437876664173004e+01  6.2896329696144193e+01  5.9906888366110415e+01  8.1034758719462829e+01  7.7359745784641163e+01  5.3942425956713613e+01  7.4077672264383438e+01  7.4897068723154575e+01  6.3132038467004989e+01  8.0426818427649962e+01  5.8542073407253717e+01  7.5123287406956337e+01  5.8235943444054541e+01  7.5261972894397388e+01  6.3969774115870273e+01  6.4482380090841062e+01  6.0423663673860091e+01  7.7794652117125963e+01  6.0179388387162412e+01  5.8095618516968209e+01  6.3894393153608370e+01  6.3213235254967778e+01  7.7888711919719682e+01  6.1931923863684347e+01  6.6602116971666419e+01  7.4065899146949832e+01  6.6666617822739724e+01  5.9677124020402005e+01  7.4980764443032314e+01  5.2946293302093054e+01  8.4746378217540652e+01  7.402