<?xml version="1.0"?>
<VTKFile type="UnstructuredGrid"  version="0.1"  >
<UnstructuredGrid>
<Piece  NumberOfPoints="2331" NumberOfCells="4248">
<Points>
<DataArray  type="Float64"  NumberOfComponents="3"  format="ascii">0 0.3 0  0 0 0  0.04999999999999999 0 0  0.0514582251803892 0.02410733605106462 0  0.0558116365147896 0.04786313285751154 0  0.06299675146291706 0.07092097740850717 0  0.07290879486935808 0.09294463440875382 0  0.08540322682126872 0.1136129493462312 0  0.1002978503657798 0.132624531648159 0  0.117375468351841 0.1497021496342203 0  0.1363870506537689 0.1645967731787313 0  0.1570553655912463 0.177091205130642 0  0.1790790225914929 0.187003248537083 0  0.2021368671424885 0.1941883634852104 0  0.2258926639489354 0.1985417748196108 0  0.25 0.2 0  0.2741073360510646 0.1985417748196108 0  0.2978631328575116 0.1941883634852104 0  0.3209209774085071 0.187003248537083 0  0.3429446344087537 0.177091205130642 0  0.3636129493462312 0.1645967731787313 0  0.3826245316481591 0.1497021496342202 0  0.3997021496342202 0.132624531648159 0  0.4145967731787313 0.1136129493462312 0  0.427091205130642 0.09294463440875371 0  0.4370032485370829 0.07092097740850713 0  0.4441883634852104 0.04786313285751155 0  0.4485417748196108 0.02410733605106461 0  0.45 0 0  0.55 0 0  0.5514582251803892 0.02410733605106462 0  0.5558116365147896 0.04786313285751154 0  0.5629967514629171 0.07092097740850717 0  0.5729087948693581 0.09294463440875382 0  0.5854032268212688 0.1136129493462312 0  0.6002978503657798 0.132624531648159 0  0.617375468351841 0.1497021496342203 0  0.6363870506537689 0.1645967731787313 0  0.6570553655912463 0.177091205130642 0  0.6790790225914929 0.187003248537083 0  0.7021368671424885 0.1941883634852104 0  0.7258926639489354 0.1985417748196108 0  0.75 0.2 0  0.7741073360510646 0.1985417748196108 0  0.7978631328575116 0.1941883634852104 0  0.8209209774085071 0.187003248537083 0  0.8429446344087537 0.177091205130642 0  0.8636129493462312 0.1645967731787313 0  0.8826245316481591 0.1497021496342202 0  0.8997021496342202 0.132624531648159 0  0.9145967731787312 0.1136129493462312 0  0.927091205130642 0.09294463440875371 0  0.9370032485370829 0.07092097740850713 0  0.9441883634852104 0.04786313285751155 0  0.9485417748196108 0.02410733605106461 0  0.95 0 0  1 0 0  1 0.3 0  0.9758926639489353 0.3014582251803892 0  0.9521368671424885 0.3058116365147896 0  0.9290790225914928 0.3129967514629171 0  0.9070553655912461 0.3229087948693581 0  0.8863870506537688 0.3354032268212687 0  0.867375468351841 0.3502978503657798 0  0.8502978503657798 0.367375468351841 0  0.8354032268212687 0.3863870506537689 0  0.822908794869358 0.4070553655912464 0  0.8129967514629171 0.4290790225914929 0  0.8058116365147896 0.4521368671424885 0  0.8014582251803892 0.4758926639489354 0  0.8 0.4999999999999999 0  0.8014582251803892 0.5241073360510646 0  0.8058116365147896 0.5478631328575115 0  0.8129967514629171 0.5709209774085071 0  0.8229087948693581 0.5929446344087538 0  0.8354032268212688 0.6136129493462312 0  0.8502978503657798 0.632624531648159 0  0.867375468351841 0.6497021496342202 0  0.8863870506537689 0.6645967731787313 0  0.9070553655912463 0.677091205130642 0  0.9290790225914929 0.6870032485370829 0  0.9521368671424885 0.6941883634852104 0  0.9758926639489354 0.6985417748196108 0  1 0.7 0  1 1 0  0.95 1 0  0.9485417748196108 0.9758926639489353 0  0.9441883634852104 0.9521368671424885 0  0.9370032485370829 0.9290790225914928 0  0.927091205130642 0.9070553655912463 0  0.9145967731787312 0.8863870506537688 0  0.8997021496342201 0.8673754683518409 0  0.882624531648159 0.8502978503657798 0  0.863612949346231 0.8354032268212686 0  0.8429446344087537 0.822908794869358 0  0.8209209774085071 0.8129967514629171 0  0.7978631328575114 0.8058116365147896 0  0.7741073360510646 0.8014582251803892 0  0.75 0.8 0  0.7258926639489353 0.8014582251803892 0  0.7021368671424885 0.8058116365147896 0  0.6790790225914928 0.8129967514629171 0  0.6570553655912461 0.8229087948693581 0  0.6363870506537688 0.8354032268212688 0  0.617375468351841 0.8502978503657798 0  0.6002978503657798 0.867375468351841 0  0.5854032268212687 0.8863870506537689 0  0.572908794869358 0.9070553655912463 0  0.5629967514629171 0.9290790225914929 0  0.5558116365147896 0.9521368671424885 0  0.5514582251803892 0.9758926639489355 0  0.55 0.9999999999999999 0  0.45 0.9999999999999999 0  0.4485417748196108 0.9758926639489353 0  0.4441883634852104 0.9521368671424885 0  0.4370032485370829 0.9290790225914928 0  0.427091205130642 0.9070553655912463 0  0.4145967731787313 0.8863870506537688 0  0.3997021496342201 0.8673754683518409 0  0.382624531648159 0.8502978503657798 0  0.363612949346231 0.8354032268212686 0  0.3429446344087536 0.822908794869358 0  0.3209209774085071 0.8129967514629171 0  0.2978631328575115 0.8058116365147896 0  0.2741073360510646 0.8014582251803892 0  0.25 0.8 0  0.2258926639489353 0.8014582251803892 0  0.2021368671424885 0.8058116365147896 0  0.1790790225914928 0.8129967514629171 0  0.1570553655912462 0.8229087948693581 0  0.1363870506537688 0.8354032268212688 0  0.117375468351841 0.8502978503657798 0  0.1002978503657797 0.867375468351841 0  0.08540322682126869 0.8863870506537689 0  0.07290879486935797 0.9070553655912463 0  0.06299675146291703 0.9290790225914929 0  0.05581163651478957 0.9521368671424885 0  0.0514582251803892 0.9758926639489355 0  0.04999999999999999 0.9999999999999999 0  0 1 0  -0 0.7000000000000001 0  0.0241073360510646 0.6985417748196108 0  0.04786313285751161 0.6941883634852104 0  0.07092097740850711 0.6870032485370829 0  0.09294463440875372 0.677091205130642 0  0.1136129493462312 0.6645967731787312 0  0.1326245316481591 0.6497021496342202 0  0.1497021496342202 0.632624531648159 0  0.1645967731787313 0.6136129493462312 0  0.177091205130642 0.5929446344087537 0  0.187003248537083 0.5709209774085071 0  0.1941883634852104 0.5478631328575115 0  0.1985417748196108 0.5241073360510646 0  0.2 0.5 0  0.1985417748196108 0.4758926639489353 0  0.1941883634852104 0.4521368671424885 0  0.1870032485370829 0.4290790225914928 0  0.177091205130642 0.4070553655912463 0  0.1645967731787313 0.3863870506537688 0  0.1497021496342202 0.3673754683518409 0  0.132624531648159 0.3502978503657798 0  0.113612949346231 0.3354032268212686 0  0.09294463440875361 0.322908794869358 0  0.07092097740850711 0.3129967514629171 0  0.04786313285751148 0.3058116365147896 0  0.02410733605106464 0.3014582251803892 0  0.6985417748196108 0.5241073360510646 0  0.7 0.5 0  0.6985417748196108 0.4758926639489353 0  0.6941883634852104 0.4521368671424885 0  0.6870032485370829 0.4290790225914928 0  0.677091205130642 0.4070553655912463 0  0.6645967731787312 0.3863870506537688 0  0.6497021496342201 0.3673754683518409 0  0.632624531648159 0.3502978503657798 0  0.613612949346231 0.3354032268212686 0  0.5929446344087537 0.322908794869358 0  0.5709209774085071 0.3129967514629171 0  0.5478631328575114 0.3058116365147896 0  0.5241073360510646 0.3014582251803892 0  0.4999999999999999 0.3 0  0.4758926639489353 0.3014582251803892 0  0.4521368671424885 0.3058116365147896 0  0.4290790225914928 0.3129967514629171 0  0.4070553655912462 0.3229087948693581 0  0.3863870506537688 0.3354032268212687 0  0.367375468351841 0.3502978503657798 0  0.3502978503657798 0.367375468351841 0  0.3354032268212687 0.3863870506537689 0  0.322908794869358 0.4070553655912464 0  0.3129967514629171 0.4290790225914929 0  0.3058116365147896 0.4521368671424885 0  0.3014582251803892 0.4758926639489354 0  0.3 0.4999999999999999 0  0.3014582251803892 0.5241073360510646 0  0.3058116365147896 0.5478631328575115 0  0.3129967514629171 0.5709209774085071 0  0.3229087948693581 0.5929446344087538 0  0.3354032268212687 0.6136129493462312 0  0.3502978503657798 0.632624531648159 0  0.367375468351841 0.6497021496342202 0  0.3863870506537689 0.6645967731787313 0  0.4070553655912463 0.677091205130642 0  0.4290790225914929 0.6870032485370829 0  0.4521368671424885 0.6941883634852104 0  0.4758926639489354 0.6985417748196108 0  0.4999999999999999 0.7 0  0.5241073360510646 0.6985417748196108 0  0.5478631328575116 0.6941883634852104 0  0.5709209774085071 0.6870032485370829 0  0.5929446344087537 0.677091205130642 0  0.6136129493462312 0.6645967731787312 0  0.6326245316481591 0.6497021496342202 0  0.6497021496342202 0.632624531648159 0  0.6645967731787312 0.6136129493462312 0  0.677091205130642 0.5929446344087537 0  0.6870032485370829 0.5709209774085071 0  0.6941883634852104 0.5478631328575115 0  0 0.15 0  1 0.15 0  1 0.85 0  0 0.8500000000000001 0  0 0.075 0  1 0.075 0  1 0.925 0  0 0.925 0  0.5 0.8127595604293815 0  0.5069440078039168 0.190422209288238 0  0.25 0.3127595604293815 0  0.756944007803917 0.3095777907117619 0  0.756944007803917 0.6904222092882382 0  0.25 0.6872404395706185 0  0 0.225 0  0.4255768646051012 0.2241073097134061 0  1 0.7749999999999999 0  0.6773391559270888 0.2766774022734219 0  1 0.225 0  0.6755768646051011 0.7241073097134062 0  0 0.7750000000000001 0  0.5818971135297744 0.2287925518358889 0  0.8318971135297746 0.728792551835889 0  0.1659156081861886 0.7301636995921477 0  0.08376842746533225 0.2299656297760495 0  0.4236002201977974 0.7746535834185855 0  0.0840843918138115 0.7698363004078523 0  0.3340843918138113 0.7301636995921477 0  0.3340843918138114 0.2698363004078523 0  0.9159156081861887 0.2301636995921477 0  0.5840843918138116 0.7698363004078522 0  0.1659156081861887 0.2698363004078523 0  0.9162315725346678 0.7700343702239506 0  0.8340843918138114 0.2698363004078523 0  0.75 0.6146645247768686 0  0.5 0.1125158665330878 0  0.75 0.3874841334669124 0  0.2504983345544904 0.6122915843562002 0  0.2504983345544902 0.3877084156437999 0  0.5 0.8879783056303169 0  0.7005361650220154 0.3333055947145943 0  0.70416808765371 0.6599554817221275 0  0.449930214263529 0.1678187287522426 0  0.2247310981387008 0.7415600637745463 0  0.5155081196221678 0.7563797802146907 0  0.2752689018612993 0.2584399362254537 0  0.05605196690611226 0.8246131191226815 0  0.9439480330938878 0.1
[...]
<PointData  Scalars="Temperature"> 
<DataArray  type="Float64"  Name="Temperature"  format="ascii">9.6385923439326589e+01  1.0019399147771514e+02  1.0018768123760245e+02  1.0010066415241748e+02  9.9857371736784756e+01  9.9479139054142877e+01  9.8973455293740841e+01  9.8345749580460804e+01  9.7602079820445795e+01  9.6731538583318212e+01  9.5709363584387035e+01  9.4546153515307026e+01  9.3274001135889222e+01  9.1918673640351926e+01  9.0504319308598596e+01  8.9063972648871570e+01  8.7600262782907080e+01  8.6107827099817726e+01  8.4617389997551967e+01  8.3123763507725243e+01  8.1701409479585450e+01  8.0399705888710287e+01  7.9271771271290220e+01  7.8389699599404196e+01  7.7747604847308381e+01  7.7337440227869934e+01  7.7101049632506687e+01  7.6994157876833057e+01  7.6965258918637545e+01  7.6707299784795850e+01  7.6644721759810693e+01  7.6446831287283032e+01  7.6067004405577137e+01  7.5464733740019085e+01  7.4580483282146375e+01  7.3409068225659254e+01  7.1971989828823055e+01  7.0317560017096440e+01  6.8520237197374669e+01  6.6681664609159128e+01  6.4900646305872854e+01  6.3257891383658936e+01  6.1797437388355434e+01  6.0531636562316706e+01  5.9452147996363138e+01  5.8551611066525631e+01  5.7790399710632300e+01  5.7155700469524099e+01  5.6632735503120337e+01  5.6197010809384167e+01  5.5838407019187386e+01  5.5541316697848927e+01  5.5304338240306961e+01  5.5127755579921327e+01  5.5014219074192944e+01  5.4973683525809264e+01  5.4970400492953651e+01  5.6628173733510593e+01  5.6695342006414265e+01  5.6888268460735098e+01  5.7183005805181956e+01  5.7532973857128439e+01  5.7878312773243664e+01  5.8141838102154153e+01  5.8252571573099111e+01  5.8151278301797561e+01  5.7815225319443165e+01  5.7206181368001552e+01  5.6383901656240539e+01  5.5403701114948049e+01  5.4347473343976752e+01  5.3299330715253824e+01  5.2317571125878125e+01  5.1407102219488735e+01  5.0572041799461232e+01  4.9772603464213702e+01  4.8995539630978172e+01  4.8248668044865575e+01  4.7526062375709053e+01  4.6868269190596806e+01  4.6304577392749678e+01  4.5874804934685741e+01  4.5608648181235949e+01  4.5515139983776372e+01  4.3491480125036510e+01  4.3494594115429862e+01  4.3540302115848704e+01  4.3668577328382376e+01  4.3868484874975366e+01  4.4137455375482482e+01  4.4472973935208756e+01  4.4876158035508773e+01  4.5353870816757812e+01  4.5910850722014871e+01  4.6555345431476418e+01  4.7280166691571871e+01  4.8063070149987311e+01  4.8902518097975197e+01  4.9768304872316790e+01  5.0682045030952736e+01  5.1631195822673718e+01  5.2609437903402707e+01  5.3593742609289819e+01  5.4555364112102836e+01  5.5424079402813433e+01  5.6184028370652072e+01  5.6767181089052798e+01  5.7190005307676238e+01  5.7445486731146019e+01  5.7577365300951001e+01  5.7634894152204780e+01  5.7648400554801690e+01  5.7837942309031810e+01  5.7896538524972492e+01  5.8069479193064609e+01  5.8383460906061487e+01  5.8876544750106532e+01  5.9596107496276325e+01  6.0534312249331251e+01  6.1688920103259207e+01  6.3002164600483049e+01  6.4430302237497401e+01  6.5870579856732832e+01  6.7232709146635472e+01  6.8459679312024548e+01  6.9479249039177319e+01  7.0294481431005948e+01  7.0903728221085828e+01  7.1347217342105822e+01  7.1660507446743310e+01  7.1881380074530668e+01  7.2039320932419045e+01  7.2153326077186222e+01  7.2236450916065778e+01  7.2300133166129129e+01  7.2347427392883759e+01  7.2381940411126649e+01  7.2402794448317152e+01  7.2410620629445006e+01  7.2410888153247996e+01  7.2198809679433552e+01  7.2192589484137500e+01  7.2179172573398802e+01  7.2173368873220539e+01  7.2201883067758899e+01  7.2304807167297085e+01  7.2534966477506032e+01  7.2947548402663728e+01  7.3602426666871807e+01  7.4525610674786847e+01  7.5743930897780601e+01  7.7226015069696061e+01  7.8919082628983020e+01  8.0709423036625211e+01  8.2499916942007715e+01  8.4205867055221248e+01  8.5794407418832208e+01  8.7277374929811344e+01  8.8705575151569221e+01  9.0095410244065647e+01  9.1452140413885985e+01  9.2740122662844882e+01  9.3925733501285109e+01  9.4947629871171898e+01  9.5719491318148641e+01  9.6213057078936046e+01  5.3477706850226461e+01  5.4503725796865332e+01  5.5644531853137970e+01  5.6858363105910840e+01  5.8125977627844492e+01  5.9464026938061764e+01  6.0911655010901974e+01  6.2500308259060816e+01  6.4258127467422668e+01  6.6134868862141019e+01  6.8106569128144088e+01  7.0137074255987571e+01  7.2149821227877183e+01  7.4120952123820061e+01  7.6028460925669464e+01  7.7861190066254338e+01  7.9595866204182911e+01  8.1225980816212996e+01  8.2700340875141649e+01  8.3973730049544173e+01  8.4940445917626391e+01  8.5561428207435398e+01  8.5762594681042302e+01  8.5521979901918343e+01  8.4817588672953704e+01  8.3708873207556522e+01  8.2253265307676912e+01  8.0549814348382625e+01  7.8731783817620865e+01  7.6902942750823769e+01  7.5135804854400206e+01  7.3403688189833275e+01  7.1733887822856545e+01  7.0079962908169293e+01  6.8406605264118951e+01  6.6724205927662709e+01  6.5015060905546790e+01  6.3349236867681171e+01  6.1722754547453157e+01  6.0186446816585580e+01  5.8729563633281309e+01  5.7363457168697387e+01  5.6084549256454046e+01  5.4919170635012051e+01  5.3863901054361470e+01  5.2964273932376599e+01  5.2262384473186103e+01  5.1787031927755571e+01  5.1578167364198322e+01  5.1652964915695833e+01  5.2013004808447512e+01  5.2634773617616453e+01  9.8348160184991571e+01  5.5813224688881590e+01  4.4464507419338361e+01  7.2261953658760333e+01  9.9627904398864189e+01  5.5233563102145055e+01  4.3789458907909584e+01  7.2362510769963194e+01  5.8367543866516762e+01  7.6000489210823304e+01  8.8277436775753330e+01  6.0388530933184214e+01  4.9952921722076184e+01  7.1168651271827471e+01  9.7054578117947756e+01  8.0063701632802861e+01  4.5152883188227506e+01  6.4559802491750219e+01  5.6361982756826627e+01  5.1920169468329739e+01  7.2202023749106260e+01  7.1472550826093141e+01  4.7853032281497129e+01  7.1697847894819731e+01  9.5901537247609383e+01  6.1852224901534086e+01  7.2068899039629301e+01  6.7117843728893277e+01  8.5103527511398738e+01  5.6920881782071341e+01  5.5318017358582217e+01  9.2327700722330306e+01  4.5789034406209865e+01  5.8582737212999653e+01  5.1007230574153695e+01  7.6604850395169521e+01  5.8647634151550101e+01  7.3924459759399838e+01  8.6476104840064025e+01  5.8024888918727243e+01  6.1775659934001418e+01  5.1144022378683573e+01  7.8324999698334892e+01  7.0641029625223666e+01  5.7919438088433971e+01  8.7704907051699280e+01  7.2177649167365971e+01  5.6219391726054880e+01  9.7486728074939862e+01  4.4971455836266401e+01  7.7051262235550652e+01  5.0391054894004185e+01  6.2144298043741365e+01  6.0051137686510948e+01  7.2252856657738477e+01  9.0086138934994764e+01  6.9850199241556254e+01  8.6283580502120031e+01  5.6585829882582566e+01  7.6774244727643080e+01  5.6667400382971074e+01  5.2744323173081398e+01  8.4036078473914984e+01  7.7626353822725918e+01  5.7741161058814903e+01  5.7823036357487126e+01  9.0093336521452727e+01  6.9196429490356280e+01  7.3709085661754585e+01  4.9761986487546338e+01  5.8824976898604632e+01  6.7925754337295373e+01  8.2464784447448849e+01  8.3222632882595022e+01  5.3392209379266539e+01  5.3903065224562994e+01  6.7331630216614428e+01  4.9032290496193404e+01  6.0045596106972525e+01  5.4652104033386614e+01  7.6837404051280785e+01  8.1001470467416880e+01  6.4437510371389422e+01  6.4811257561142014e+01  7.4291786807230196e+01  4.6692631159287025e+01  4.6778288149681934e+01  5.9738682410642802e+01  9.4583270265007485e+01  7.2174374529045153e+01  5.7397701875811329e+01  7.1771657869342107e+01  9.3898792679143639e+01  7.2046069418635128e+01  5.6645082897174426e+01  5.7768693312243293e+01  4.5578190198862679e+01  9.6266919279370569e+01  5.5748742150616330e+01  4.4326786651521097e+01  9.8616629500700185e+01  7.2264383569311221e+01  5.8575828819416571e+01  4.8922435925224057e+01  7.5281825304623467e+01  5.0870723325193268e+01  5.5191734635580545e+01  6.7651956597642908e+01  9.2057597177897676e+01  5.6776456833530077e+01  8.4809714406362076e+01  7.2192191381340407e+01  7.2029437709546201e+01  9.6372407202365736e+01  4.5611620676735512e+01  7.3386847474174871e+01  8.8164649028413649e+01  5.7619728054170572e+01  4.8070097750638013e+01  8.6974540401117565e+01  7.1898313611107639e+01  6.4521471177041647e+01  6.4557680880645734e+01  6.2173213393699641e+01  7.9453761653252741e+01  5.2391893521617682e+01  8.0769690695112430e+01  5.1944215831093267e+01  5.8989498859510789e+01  6.1326865750314887e+01  7.1180109989440453e+01  6.2247636990326342e+01  4.8013742860744216e+01  7.0457166462761165e+01  7.1143449808112848e+01  8.5388843122323578e+01  6.7404261227530725e+01  9.1877153387225036e+01  5.8205660611142051e+01  5.5506759513110040e+01  7.7827688356687304e+01  9.6945972111184346e+01  5.8831792712792669e+01  5.6459867619341459e+01  7.2165211263183878e+01  5.7205489816839403e+01  7.2223235088504040e+01  5.6108367222569612e+01  5.9439901840809128e+01  4.4814290190155340e+01  7.7648024368337985e+01  6.0049852425112924e+01  5.9959893707731922e+01  7.6852166210317677e+01  9.7671487752096269e+01  5.1566158537584080e+01  5.1588624083929304e+01  5.0368107218350112e+01  7.5696614114905117e+01  8.6420155162606150e+01  7.2524146699543820e+01  8.6037548990481511e+01  7.2137844022859852e+01  7.7088267210198183e+01  7.6296766611295794e+01  5.7504770396403956e+01  5.8242256693029958e+01  5.7194946412393065e+01  5.7629751083821809e+01  5.8344725039066901e+01  4.4827725372481176e+01  7.2197928165412804e+01  4.4106417661362109e+01  5.6543013146722274e+01  9.6582536020427327e+01  5.5040214494848790e+01  1.0004452675151923e+02  5.5507326110288950e+01  5.5405521881708061e+01  9.9029212260266917e+01  4.3569845649195685e+01  7.2397961922190859e+01  4.5405794018810198e+01  7.2313267398570318e+01  7.2328791013812562e+01  8.5166259843617524e+01  7.5404457442837767e+01  7.1398445759291363e+01  8.6611426648724830e+01  5.8827147251401215e+01  4.6121780550907722e+01  6.9171525525788866e+01  8.9726518968169046e+01  4.9479528089818430e+01  5.0530787695497693e+01  5.9432504502148099e+01  4.5244169793550419e+01  5.6487594862548640e+01  7.5087356632469408e+01  7.2437203915841650e+01  8.7995167693518994e+01  9.3886996102871095e+01  6.9494621630744078e+01  7.5275092549864212e+01  6.0679086074852279e+01  5.9415979161236272e+01  5.6963068791200200e+01  5.1591480567865382e+01  5.1781530316962694e+01  4.3972662099600626e+01  9.9280872198784905e+01  9.5242698106710321e+01  4.8949089656424519e+01  6.9952870067363136e+01  8.9678400798687434e+01  5.7854325971995578e+01  7.3385769805922408e+01  5.1116077473416091e+01  5.6954245674475764e+01  6.1567109176635903e+01  8.1595458442235525e+01  5.2835023006090367e+01  6.2939843744062635e+01  9.9839617897176254e+01  5.5180089766170433e+01  4.3678645554936601e+01  7.2379760377007557e+01  6.3670267752953322e+01  5.2253125559734286e+01  7.8627688927109872e+01  7.2191226105439682e+01  7.2229713333405613e+01  5.6069666150718106e+01  5.6004652070662196e+01  6.5725287912400475e+01  9.7315074791259519e+01  9.6723941536921771e+01  9.7922728308960217e+01  7.9453379231018900e+01  7.9101710435941385e+01  9.5457971757417312e+01  5.9536549363907149e+01  7.2171169390255429e+01  7.1819213098756478e+01  5.7355074177052579e+01  6.3292686373020253e+01  6.1035732065959408e+01  8.2302861053561060e+01  5.3318754244832348e+01  4.4624029239009488e+01  5.1463059148979866e+01  5.0609843916278784e+01  7.2246968284307926e+01  5.7668757075097339e+01  5.8356005234571619e+01  7.6913437652752989e+01  7.6727818440422212e+01  5.5619305218019313e+01  5.6240369199933603e+01  8.2544743404695197e+01  8.3389259799425645e+01  6.3364992116122934e+01  4.7308890087458394e+01  5.7912187059095601e+01  6.7596321733472280e+01  8.6298507708258327e+01  6.5979965371852089e+01  9.1008201609029385e+01  6.8654098303801618e+01  7.0126858096641584e+01  7.1331187586453879e+01  8.7051021606667902e+01  8.8660879431574429e+01  7.0575140091103378e+01  5.5925014991970286e+01  5.6567506046057360e+01  8.7215410013396607e+01  7.1904371257337701e+01  8.5939648388674712e+01  9.0686325481272206e+01  6.9347485365991133e+01  7.2938634471877506e+01  5.7449258123572505e+01  5.3684517265665107e+01  5.3826971543267632e+01  7.9651529564264422e+01  7.9323515049689405e+01  9.3431462579367619e+01  5.1277479787701871e+01  5.0920404821474932e+01  5.0185804396574738e+01  8.1174143244092676e+01  5.2850764347643633e+01  5.8248861515934635e+01  8.0933326028849649e+01  5.9952357785016233e+01  6.0739501447623745e+01  6.1149012855478233e+01  7.6970573844571703e+01  7.6499134998333261e+01  6.3068152624438319e+01  6.5925481400012146e+01  4.5342940385006678e+01  9.5153290720035812e+01  5.8402589152886222e+01  7.4050517693107565e+01  4.6909197504838957e+01  4.6204037046373827e+01  5.9509918708629264e+01  5.8731098905752070e+01  5.8112697624376558e+01  7.1460877655579964e+01  8.3377367247504566e+01  8.4093868207360202e+01  5.4142533938469256e+01  5.4495633647057055e+01  6.3664307980924207e+01  7.2057690406807964e+01  7.6092744496051083e+01  6.9787780087023293e+01  5.7379252372003847e+01  5.1656520103151806e+01  5.6608352742132773e+01  7.2116150122051806e+01  7.3226383886461520e+01  4.3493056284815360e+01  5.4971941640889206e+01  1.0019133832621827e+02  7.2410840248865227e+01  7.7187236618338218e+01  6.9109860760373593e+01  8.3826755821514212e+01  6.1107570067789197e+01  5.2524393595482614e+01  5.7839599923013516e+01  7.6527812543828162e+01  7.7008937103807185e+01  8.5416105383455303e+01  5.9721852166591603e+01  4.7438925768234917e+01  4.6994810093891154e+01  4.6346269513255002e+01  4.7394243423172121e+01  5.4528649508484662e+01  8.4092630613722335e+01  7.4545540937241569e+01  5.7757394541704954e+01  5.7676583000736393e+01  5.7928804251913910e+01  5.4030349262084336e+01  5.2386071802516831e+01  7.7568907529633677e+01  7.7092557434980691e+01  9.2991351817537577e+01  8.5619667931078951e+01  6.3326343638994800e+01  9.4961502532652830e+01  7.1889055255747721e+01  6.5928827303997153e+01  5.7745999609107294e+01  9.6768740923119992e+01  7.8500965818914267e+01  4.9791270251654581e+01  4.9763492290223724e+01  4.5172100449066079e+01  7.1170917660028579e+01  9.1333589163582133e+01  6.8178786028385545e+01  7.1594001009918074e+01  7.1867366561915034e+01  7.1957232400053257e+01  8.1614039621493831e+01  5.5052943358198888e+01  9.8000497655658293e+01  4.6057214170602599e+01  8.4964401009411958e+01  6.6274988662205857e+01  7.2202600050459779e+01  5.6220647074710705e+01  5.0429570107149353e+01  6.3300724883330872e+01  8.5379279364561398e+01  5.5813183729982654e+01  8.9416422945928332e+01  5.6604451254197741e+01  4.5325641644107606e+01  7.2143861498978666e+01  6.6229047079769870e+01  8.3965878772913996e+01  5.7110011424363059e+01  7.6698453422189473e+01  5.5044550419899977e+01  7.2401502860987179e+01  1.0008768841288861e+02  4.3546586993599590e+01  6.9856733113844484e+01  5.9138675657722558e+01  4.6644416180873925e+01  5.8284024568938285e+01  7.1982958309869218e+01  6.5788770912059718e+01  5.7011892724561761e+01  5.4802512860447514e+01  9.5805255183569116e+01  7.2460579728473036e+01  7.2067222716739181e+01  7.0902122549822650e+01  5.9261036084811821e+01  6.4687768541411131e+01  6.6375917515134418e+01  7.2181718657934098e+01  5.6749105913999209e+01  7.2187908587053570e+01  5.7977270093048745e+01  7.4809698696071834e+01  8.8373967441082641e+01  7.4224292382651754e+01  4.8656549273012374e+01  8.9064752418893917e+01  5.8212672930196440e+01  4.8329717223132555e+01  4.9681930790431927e+01  4.9557215270370861e+01  6.1565756487291395e+01  5.8137375096536601e+01  4.5541209280663345e+01  7.6010762447808744e+01  9.1011337080085610e+01  6.7939300597758916e+01  5.8472652293496139e+01  5.1484256632363895e+01  7.3739112734856121e+01  7.1942420837822610e+01  4.4987027110505231e+01  8.7613563791117173e+01  7.0755699787957766e+01  7.6747413332438910e+01  5.7808086649442096e+01  7.6927881301934818e+01  7.5471045653172808e+01  9.2592299403093520e+01  5.6449799730086710e+01  7.2122359370632026e+01  7.2130187860869611e+01  5.6712610019332885e+01  5.6464650575136012e+01  5.6450952305501787e+01  4.5194800752963076e+01  9.7451604646087404e+01  6.9302323166992281e+01  8.7578872946678246e+01  5.7608614368076317e+01  7.5665924937657664e+01  7.2832256781062739e+01  6.7900943973742741e+01  7.8576867459873043e+01  8.6020844611498759e+01  8.9023940352104574e+01  5.7744799476379804e+01  7.2289975844621537e+01  5.5684880822104297e+01  4.7668589830570966e+01  7.2596215359641619e+01  6.0618165750011009e+01  9.4493238860207114e+01  5.7328099111485628e+01  9.3194987403176540e+01  9.4072769215595230e+01  4.5822523495433039e+01  4.5528271888850306e+01  9.6359547554316123e+01  9.6421973491745021e+01  8.2595451045952515e+01  6.1087561702166383e+01  5.7478725428248495e+01  5.8401612273571708e+01  6.0938830858891471e+01  5.8882950847252687e+01  6.1121194538017939e+01  4.4755207411871517e+01  5.7090173759311746e+01  6.3206213308999516e+01  8.6391999795545217e+01  8.2698150443537102e+01  5.8768289575841081e+01  5.5642530186467262e+01  5.7392931041626902e+01  6.0171967484711793e+01  5.0762495546902763e+01  8.5518631822937607e+01  7.7502440496167083e+01  7.2191108819017757e+01  7.3798815742033852e+01  7.3376910369199251e+01  8.7420392362057697e+01  4.4282127717579158e+01  9.8693315916326057e+01  9.8387625483432515e+01  9.8418532787650648e+01  4.4511669005324130e+01  4.4150210848186902e+01  4.7860294231887259e+01  7.0699187836870664e+01  4.8778233178423626e+01  7.6119388665715874e+01  5.0981875561760262e+01  5.5980383170744595e+01  5.5804132555931972e+01  7.2225640499460823e+01  7.2286422259997195e+01  7.2261235789652048e+01  5.7594118948170241e+01  9.8953181189394272e+01  7.2301878574975490e+01  5.5562413295209900e+01  4.6051930899112996e+01  7.4627538958885509e+01  5.8813926124005739e+01  7.2340626228503069e+01  8.7157732035181169e+01  7.2853299520906518e+01  5.6601666881689184e+01  7.2198214683427182e+01  5.2984911630637598e+01  4.9301435915627678e+01  4.9429834847058395e+01  4.8274746500550926e+01  9.0617876820549142e+01  5.8187343975750835e+01  9.6056641217666311e+01  4.8673179965416900e+01  7.1950943116319763e+01  5.6936516063429899e+01  7.4539500222073144e+01  7.4505013272038696e+01  4.4393213471886206e+01  5.9367958420867076e+01  9.5987416221196611e+01  5.0140022811415150e+01  5.4986107410865230e+01  5.3218709005423641e+01  8.4382959644765236e+01  6.8497530909750637e+01  5.4735241654273416e+01  5.9019642416350202e+01  5.6409171761119872e+01  5.8770905849270207e+01  9.1143790868294602e+01  8.1151808065892226e+01  6.6596500830399805e+01  6.0154176297874656e+01  5.8114199683763722e+01  6.0085545068605263e+01  6.0918952861291586e+01  5.7987258880926120e+01  7.1125110779851966e+01  7.2295878855013143e+01  6.7268325450460793e+01  5.6602306883030664e+01  7.2193327292248128e+01  5.7188544921807207e+01  8.7698478702488231e+01  7.1698793595332845e+01  7.7131315253851440e+01  7.6974781283691030e+01  7.8029240496525105e+01  5.8954464697967154e+01  6.2215523027026897e+01  5.1122482177771246e+01  5.1292539906835913e+01  5.0695315723492655e+01  6.2904783815158559e+01  4.5504813819154478e+01  5.6463766598076631e+01  6.5074909720649103e+01  9.6132644265758671e+01  9.6990721793785525e+01  9.2926314072623171e+01  6.4351053087056613e+01  6.8668546285535044e+01  6.7565230567035854e+01  5.8240550833208587e+01  5.5042612045091161e+01  9.1714324743139343e+01  8.4570000298572282e+01  4.5618849014903802e+01  7.8233563264864287e+01  7.9774263009603899e+01  5.8154049368005687e+01  9.0510674263434368e+01  5.2715489669176549e+01  8.0173923762786075e+01  5.2230933412503298e+01  8.0418095308360208e+01  6.1774113442341061e+01  6.2621772049062038e+01  5.5895085540927298e+01  8.5346744790151917e+01  5.5476219270027613e+01  5.2065410829409181e+01  6.0051418839352756e+01  5.8991858327126124e+01  8.5607996463998504e+01  5.8387805244239708e+01  6.4598500799649059e+01  7.9073277399641867e+01  6.4826720768393002e+01  5.3808200068523895e+01  7.9957103141623705e+01  4.4149438799358833e+01  9.8829054320288293e+01  7.799