<?xml version="1.0"?>
<VTKFile type="UnstructuredGrid"  version="0.1"  >
<UnstructuredGrid>
<Piece  NumberOfPoints="2331" NumberOfCells="4248">
<Points>
<DataArray  type="Float64"  NumberOfComponents="3"  format="ascii">0 0.3 0  0 0 0  0.04999999999999999 0 0  0.0514582251803892 0.02410733605106462 0  0.0558116365147896 0.04786313285751154 0  0.06299675146291706 0.07092097740850717 0  0.07290879486935808 0.09294463440875382 0  0.08540322682126872 0.1136129493462312 0  0.1002978503657798 0.132624531648159 0  0.117375468351841 0.1497021496342203 0  0.1363870506537689 0.1645967731787313 0  0.1570553655912463 0.177091205130642 0  0.1790790225914929 0.187003248537083 0  0.2021368671424885 0.1941883634852104 0  0.2258926639489354 0.1985417748196108 0  0.25 0.2 0  0.2741073360510646 0.1985417748196108 0  0.2978631328575116 0.1941883634852104 0  0.3209209774085071 0.187003248537083 0  0.3429446344087537 0.177091205130642 0  0.3636129493462312 0.1645967731787313 0  0.3826245316481591 0.1497021496342202 0  0.3997021496342202 0.132624531648159 0  0.4145967731787313 0.1136129493462312 0  0.427091205130642 0.09294463440875371 0  0.4370032485370829 0.07092097740850713 0  0.4441883634852104 0.04786313285751155 0  0.4485417748196108 0.02410733605106461 0  0.45 0 0  0.55 0 0  0.5514582251803892 0.02410733605106462 0  0.5558116365147896 0.04786313285751154 0  0.5629967514629171 0.07092097740850717 0  0.5729087948693581 0.09294463440875382 0  0.5854032268212688 0.1136129493462312 0  0.6002978503657798 0.132624531648159 0  0.617375468351841 0.1497021496342203 0  0.6363870506537689 0.1645967731787313 0  0.6570553655912463 0.177091205130642 0  0.6790790225914929 0.187003248537083 0  0.7021368671424885 0.1941883634852104 0  0.7258926639489354 0.1985417748196108 0  0.75 0.2 0  0.7741073360510646 0.1985417748196108 0  0.7978631328575116 0.1941883634852104 0  0.8209209774085071 0.187003248537083 0  0.8429446344087537 0.177091205130642 0  0.8636129493462312 0.1645967731787313 0  0.8826245316481591 0.1497021496342202 0  0.8997021496342202 0.132624531648159 0  0.9145967731787312 0.1136129493462312 0  0.927091205130642 0.09294463440875371 0  0.9370032485370829 0.07092097740850713 0  0.9441883634852104 0.04786313285751155 0  0.9485417748196108 0.02410733605106461 0  0.95 0 0  1 0 0  1 0.3 0  0.9758926639489353 0.3014582251803892 0  0.9521368671424885 0.3058116365147896 0  0.9290790225914928 0.3129967514629171 0  0.9070553655912461 0.3229087948693581 0  0.8863870506537688 0.3354032268212687 0  0.867375468351841 0.3502978503657798 0  0.8502978503657798 0.367375468351841 0  0.8354032268212687 0.3863870506537689 0  0.822908794869358 0.4070553655912464 0  0.8129967514629171 0.4290790225914929 0  0.8058116365147896 0.4521368671424885 0  0.8014582251803892 0.4758926639489354 0  0.8 0.4999999999999999 0  0.8014582251803892 0.5241073360510646 0  0.8058116365147896 0.5478631328575115 0  0.8129967514629171 0.5709209774085071 0  0.8229087948693581 0.5929446344087538 0  0.8354032268212688 0.6136129493462312 0  0.8502978503657798 0.632624531648159 0  0.867375468351841 0.6497021496342202 0  0.8863870506537689 0.6645967731787313 0  0.9070553655912463 0.677091205130642 0  0.9290790225914929 0.6870032485370829 0  0.9521368671424885 0.6941883634852104 0  0.9758926639489354 0.6985417748196108 0  1 0.7 0  1 1 0  0.95 1 0  0.9485417748196108 0.9758926639489353 0  0.9441883634852104 0.9521368671424885 0  0.9370032485370829 0.9290790225914928 0  0.927091205130642 0.9070553655912463 0  0.9145967731787312 0.8863870506537688 0  0.8997021496342201 0.8673754683518409 0  0.882624531648159 0.8502978503657798 0  0.863612949346231 0.8354032268212686 0  0.8429446344087537 0.822908794869358 0  0.8209209774085071 0.8129967514629171 0  0.7978631328575114 0.8058116365147896 0  0.7741073360510646 0.8014582251803892 0  0.75 0.8 0  0.7258926639489353 0.8014582251803892 0  0.7021368671424885 0.8058116365147896 0  0.6790790225914928 0.8129967514629171 0  0.6570553655912461 0.8229087948693581 0  0.6363870506537688 0.8354032268212688 0  0.617375468351841 0.8502978503657798 0  0.6002978503657798 0.867375468351841 0  0.5854032268212687 0.8863870506537689 0  0.572908794869358 0.9070553655912463 0  0.5629967514629171 0.9290790225914929 0  0.5558116365147896 0.9521368671424885 0  0.5514582251803892 0.9758926639489355 0  0.55 0.9999999999999999 0  0.45 0.9999999999999999 0  0.4485417748196108 0.9758926639489353 0  0.4441883634852104 0.9521368671424885 0  0.4370032485370829 0.9290790225914928 0  0.427091205130642 0.9070553655912463 0  0.4145967731787313 0.8863870506537688 0  0.3997021496342201 0.8673754683518409 0  0.382624531648159 0.8502978503657798 0  0.363612949346231 0.8354032268212686 0  0.3429446344087536 0.822908794869358 0  0.3209209774085071 0.8129967514629171 0  0.2978631328575115 0.8058116365147896 0  0.2741073360510646 0.8014582251803892 0  0.25 0.8 0  0.2258926639489353 0.8014582251803892 0  0.2021368671424885 0.8058116365147896 0  0.1790790225914928 0.8129967514629171 0  0.1570553655912462 0.8229087948693581 0  0.1363870506537688 0.8354032268212688 0  0.117375468351841 0.8502978503657798 0  0.1002978503657797 0.867375468351841 0  0.08540322682126869 0.8863870506537689 0  0.07290879486935797 0.9070553655912463 0  0.06299675146291703 0.9290790225914929 0  0.05581163651478957 0.9521368671424885 0  0.0514582251803892 0.9758926639489355 0  0.04999999999999999 0.9999999999999999 0  0 1 0  -0 0.7000000000000001 0  0.0241073360510646 0.6985417748196108 0  0.04786313285751161 0.6941883634852104 0  0.07092097740850711 0.6870032485370829 0  0.09294463440875372 0.677091205130642 0  0.1136129493462312 0.6645967731787312 0  0.1326245316481591 0.6497021496342202 0  0.1497021496342202 0.632624531648159 0  0.1645967731787313 0.6136129493462312 0  0.177091205130642 0.5929446344087537 0  0.187003248537083 0.5709209774085071 0  0.1941883634852104 0.5478631328575115 0  0.1985417748196108 0.5241073360510646 0  0.2 0.5 0  0.1985417748196108 0.4758926639489353 0  0.1941883634852104 0.4521368671424885 0  0.1870032485370829 0.4290790225914928 0  0.177091205130642 0.4070553655912463 0  0.1645967731787313 0.3863870506537688 0  0.1497021496342202 0.3673754683518409 0  0.132624531648159 0.3502978503657798 0  0.113612949346231 0.3354032268212686 0  0.09294463440875361 0.322908794869358 0  0.07092097740850711 0.3129967514629171 0  0.04786313285751148 0.3058116365147896 0  0.02410733605106464 0.3014582251803892 0  0.6985417748196108 0.5241073360510646 0  0.7 0.5 0  0.6985417748196108 0.4758926639489353 0  0.6941883634852104 0.4521368671424885 0  0.6870032485370829 0.4290790225914928 0  0.677091205130642 0.4070553655912463 0  0.6645967731787312 0.3863870506537688 0  0.6497021496342201 0.3673754683518409 0  0.632624531648159 0.3502978503657798 0  0.613612949346231 0.3354032268212686 0  0.5929446344087537 0.322908794869358 0  0.5709209774085071 0.3129967514629171 0  0.5478631328575114 0.3058116365147896 0  0.5241073360510646 0.3014582251803892 0  0.4999999999999999 0.3 0  0.4758926639489353 0.3014582251803892 0  0.4521368671424885 0.3058116365147896 0  0.4290790225914928 0.3129967514629171 0  0.4070553655912462 0.3229087948693581 0  0.3863870506537688 0.3354032268212687 0  0.367375468351841 0.3502978503657798 0  0.3502978503657798 0.367375468351841 0  0.3354032268212687 0.3863870506537689 0  0.322908794869358 0.4070553655912464 0  0.3129967514629171 0.4290790225914929 0  0.3058116365147896 0.4521368671424885 0  0.3014582251803892 0.4758926639489354 0  0.3 0.4999999999999999 0  0.3014582251803892 0.5241073360510646 0  0.3058116365147896 0.5478631328575115 0  0.3129967514629171 0.5709209774085071 0  0.3229087948693581 0.5929446344087538 0  0.3354032268212687 0.6136129493462312 0  0.3502978503657798 0.632624531648159 0  0.367375468351841 0.6497021496342202 0  0.3863870506537689 0.6645967731787313 0  0.4070553655912463 0.677091205130642 0  0.4290790225914929 0.6870032485370829 0  0.4521368671424885 0.6941883634852104 0  0.4758926639489354 0.6985417748196108 0  0.4999999999999999 0.7 0  0.5241073360510646 0.6985417748196108 0  0.5478631328575116 0.6941883634852104 0  0.5709209774085071 0.6870032485370829 0  0.5929446344087537 0.677091205130642 0  0.6136129493462312 0.6645967731787312 0  0.6326245316481591 0.6497021496342202 0  0.6497021496342202 0.632624531648159 0  0.6645967731787312 0.6136129493462312 0  0.677091205130642 0.5929446344087537 0  0.6870032485370829 0.5709209774085071 0  0.6941883634852104 0.5478631328575115 0  0 0.15 0  1 0.15 0  1 0.85 0  0 0.8500000000000001 0  0 0.075 0  1 0.075 0  1 0.925 0  0 0.925 0  0.5 0.8127595604293815 0  0.5069440078039168 0.190422209288238 0  0.25 0.3127595604293815 0  0.756944007803917 0.3095777907117619 0  0.756944007803917 0.6904222092882382 0  0.25 0.6872404395706185 0  0 0.225 0  0.4255768646051012 0.2241073097134061 0  1 0.7749999999999999 0  0.6773391559270888 0.2766774022734219 0  1 0.225 0  0.6755768646051011 0.7241073097134062 0  0 0.7750000000000001 0  0.5818971135297744 0.2287925518358889 0  0.8318971135297746 0.728792551835889 0  0.1659156081861886 0.7301636995921477 0  0.08376842746533225 0.2299656297760495 0  0.4236002201977974 0.7746535834185855 0  0.0840843918138115 0.7698363004078523 0  0.3340843918138113 0.7301636995921477 0  0.3340843918138114 0.2698363004078523 0  0.9159156081861887 0.2301636995921477 0  0.5840843918138116 0.7698363004078522 0  0.1659156081861887 0.2698363004078523 0  0.9162315725346678 0.7700343702239506 0  0.8340843918138114 0.2698363004078523 0  0.75 0.6146645247768686 0  0.5 0.1125158665330878 0  0.75 0.3874841334669124 0  0.2504983345544904 0.6122915843562002 0  0.2504983345544902 0.3877084156437999 0  0.5 0.8879783056303169 0  0.7005361650220154 0.3333055947145943 0  0.70416808765371 0.6599554817221275 0  0.449930214263529 0.1678187287522426 0  0.2247310981387008 0.7415600637745463 0  0.5155081196221678 0.7563797802146907 0  0.2752689018612993 0.2584399362254537 0  0.05605196690611226 0.8246131191226815 0  0.9439480330938878 0.1
[...]
<PointData  Scalars="Temperature"> 
<DataArray  type="Float64"  Name="Temperature"  format="ascii">7.5445175685643662e+01  7.6378331703665069e+01  7.6376795670582524e+01  7.6355619948012176e+01  7.6296393537341558e+01  7.6204249797127858e+01  7.6080919106722703e+01  7.5927594989747618e+01  7.5745683354829723e+01  7.5532461406426194e+01  7.5281911698676538e+01  7.4996923548629169e+01  7.4685895341742992e+01  7.4355836303322661e+01  7.4013684154996426e+01  7.3668107397806921e+01  7.3319778423572515e+01  7.2966886772442507e+01  7.2615757335527320e+01  7.2263964084255036e+01  7.1928767397344927e+01  7.1622159079205147e+01  7.1357131988061354e+01  7.1151864287193945e+01  7.1004968525775837e+01  7.0914482855564032e+01  7.0864995676181096e+01  7.0844752885071458e+01  7.0839723612225413e+01  7.0773874794479539e+01  7.0755398756383144e+01  7.0697912618845166e+01  7.0589918553181178e+01  7.0421683960637750e+01  7.0178116466900647e+01  6.9858197842490242e+01  6.9467258348866736e+01  6.9018348638700402e+01  6.8531566311550534e+01  6.8035278102099056e+01  6.7558089488882842e+01  6.7123806598412258e+01  6.6746781787060769e+01  6.6431142883683350e+01  6.6173186003746707e+01  6.5968511353451476e+01  6.5803859548897421e+01  6.5672378895546885e+01  6.5567627454638981e+01  6.5482527415890559e+01  6.5413731881098670e+01  6.5357416284957807e+01  6.5312846127802814e+01  6.5279746838927068e+01  6.5258496587854907e+01  6.5250913443314118e+01  6.5250293954875900e+01  6.5543958404621108e+01  6.5555163278965225e+01  6.5586794532985735e+01  6.5632787223178170e+01  6.5681809302381410e+01  6.5718492216841241e+01  6.5722563020567449e+01  6.5673111966476640e+01  6.5553990533976673e+01  6.5357862378782258e+01  6.5070147177003889e+01  6.4708539897490525e+01  6.4290035206592961e+01  6.3842247628624897e+01  6.3395905905452125e+01  6.2976108010032284e+01  6.2586883217113410e+01  6.2232584812725449e+01  6.1899667331987224e+01  6.1583403781417275e+01  6.1285440764237528e+01  6.1002223339039254e+01  6.0747302390621016e+01  6.0530473239626389e+01  6.0365823342047797e+01  6.0264079622849081e+01  6.0228371775749928e+01  5.9445416443667085e+01  5.9446615993440851e+01  5.9464273284140887e+01  5.9513794584483136e+01  5.9590852940143307e+01  5.9694279630925330e+01  5.9822748950662813e+01  5.9976272351751305e+01  6.0156975542501790e+01  6.0365888597236442e+01  6.0605102384758247e+01  6.0870259186096490e+01  6.1151469912610203e+01  6.1446010893396156e+01  6.1741305021442045e+01  6.2043896516405873e+01  6.2350204333724172e+01  6.2659537276446500e+01  6.2966586717684883e+01  6.3264585425568853e+01  6.3532828849331480e+01  6.3767151766049757e+01  6.3946680389441553e+01  6.4076627681026409e+01  6.4154810715318689e+01  6.4194829555505692e+01  6.4212093927352740e+01  6.4216081423058810e+01  6.4275278351292584e+01  6.4293831301760150e+01  6.4348532771704683e+01  6.4447640655418482e+01  6.4602991682254100e+01  6.4829294663949611e+01  6.5124065879618300e+01  6.5486659061874960e+01  6.5899147375995625e+01  6.6348240472882978e+01  6.6802310591366620e+01  6.7233830018106488e+01  6.7625923744747794e+01  6.7956075474510300e+01  6.8225705942278580e+01  6.8433984564312951e+01  6.8592064365286859e+01  6.8710019283653537e+01  6.8798631552563421e+01  6.8866020010475950e+01  6.8917778963373735e+01  6.8957837677127102e+01  6.8989950840030517e+01  6.9014704837025477e+01  6.9033153588978195e+01  6.9044419739098799e+01  6.9048665792362399e+01  6.9048800099937665e+01  6.8905815803183046e+01  6.8900660892574720e+01  6.8887183985783764e+01  6.8870662880282651e+01  6.8860034419294109e+01  6.8868994086177111e+01  6.8914635118986368e+01  6.9014829359672049e+01  6.9188188997649149e+01  6.9442928798857281e+01  6.9786885838932150e+01  7.0210603464629870e+01  7.0697488469805663e+01  7.1213641305379298e+01  7.1729461951658692e+01  7.2218720132266895e+01  7.2669724464040513e+01  7.3083507749485705e+01  7.3472984555638178e+01  7.3843613585345025e+01  7.4197804879315569e+01  7.4528435605314897e+01  7.4829127383997019e+01  7.5086128944550438e+01  7.5279138557256431e+01  7.5402150816178718e+01  6.3452275842320581e+01  6.3886822391013382e+01  6.4353396575007764e+01  6.4830424214816688e+01  6.5305341585376823e+01  6.5777266097893232e+01  6.6256068312788145e+01  6.6753161868066385e+01  6.7277613837860983e+01  6.7818569449525924e+01  6.8371528467785467e+01  6.8928988888922675e+01  6.9471181049133335e+01  6.9992354311609262e+01  7.0487582553356575e+01  7.0953449216724920e+01  7.1385115018801713e+01  7.1781772477458233e+01  7.2132396294639051e+01  7.2426337168518387e+01  7.2638504747898097e+01  7.2759089213305458e+01  7.2769572776934794e+01  7.2664273726815921e+01  7.2435525080323941e+01  7.2098992895602251e+01  7.1668513746973716e+01  7.1170149507454539e+01  7.0640179705224440e+01  7.0106586580542128e+01  6.9588603921380439e+01  6.9076552040959768e+01  6.8577697640300102e+01  6.8078167085572261e+01  6.7567282924777544e+01  6.7049214632019371e+01  6.6520134629437507e+01  6.6002705708111279e+01  6.5496816836937825e+01  6.5019142127781464e+01  6.4567063590200533e+01  6.4144830965076025e+01  6.3751992435835014e+01  6.3397766172369884e+01  6.3082447593098109e+01  6.2821331903778820e+01  6.2630523601533802e+01  6.2519942618582604e+01  6.2506008098690216e+01  6.2595700915432872e+01  6.2790263813991807e+01  6.3081378500275392e+01  7.5928176717403275e+01  6.5406115773685499e+01  5.9821147139361415e+01  6.8965218856099540e+01  7.6240522502955500e+01  6.5299394646736928e+01  5.9560535733537954e+01  6.9022340783669065e+01  6.4448602238091425e+01  7.0518321233981879e+01  7.3428308791979504e+01  6.6263580295814521e+01  6.1879977142131899e+01  6.8448657521848546e+01  7.5610563111742266e+01  7.1520727774426547e+01  6.0087616755779024e+01  6.7419281639023566e+01  6.5501637816274396e+01  6.2476366731921544e+01  6.8920422908729691e+01  6.9311821637697605e+01  6.1102924764611835e+01  6.8679151973485943e+01  7.5326323186503885e+01  6.5537552571327126e+01  6.8857854203707447e+01  6.7183461934945399e+01  7.2711272727560043e+01  6.5608240304465824e+01  6.3507968635584056e+01  7.4440079213367255e+01  6.0327500644893441e+01  6.5919104321743077e+01  6.2370379450973125e+01  7.0714289784829660e+01  6.5575813295502471e+01  6.9248525770811298e+01  7.2895421473434325e+01  6.4337046123394188e+01  6.6580337993068056e+01  6.2312684123269044e+01  7.1116966715921762e+01  6.8320612590404565e+01  6.4313582087895952e+01  7.3330194045458640e+01  6.8922246907894589e+01  6.5482462034286030e+01  7.5717150473672618e+01  6.0015723955879146e+01  7.0761728033808723e+01  6.1971202984160875e+01  6.6801565151955074e+01  6.4973308811286103e+01  6.8805533654035784e+01  7.3859802777449715e+01  6.8020358930129589e+01  7.2950539812363843e+01  6.3894002857566186e+01  7.0781688323239564e+01  6.4789906427587681e+01  6.3146762246875070e+01  7.2181533726942533e+01  7.0321345481518435e+01  6.4245017400347393e+01  6.4271540636235542e+01  7.3897496786381694e+01  6.7844664940625805e+01  6.9927425740021903e+01  6.1868828079122203e+01  6.5867162511817469e+01  6.8357772384010332e+01  7.2087349642825032e+01  7.2280538590024307e+01  6.2912537391339974e+01  6.3083741523035499e+01  6.8170681700872635e+01  6.1518081456318278e+01  6.6282561197751917e+01  6.3960033753936493e+01  7.0807237019455556e+01  7.1299772828861521e+01  6.6347820345068840e+01  6.6459777960746294e+01  7.0055255543846187e+01  6.0662439385420278e+01  6.0706512921102423e+01  6.4877854729285616e+01  7.4996900426585171e+01  6.8898577444128364e+01  6.5679438172310029e+01  6.8739083368543902e+01  7.4835214044306639e+01  6.8818349382573786e+01  6.5549873839095540e+01  6.5783707181020262e+01  6.0251007959434922e+01  7.5415684123484127e+01  6.5395539027044251e+01  5.9767433661872090e+01  7.5993803383817195e+01  6.8969596017729657e+01  6.5660925430127563e+01  6.1515153945088436e+01  7.0360746194441305e+01  6.2166221693459555e+01  6.3463308387558222e+01  6.7339676892171056e+01  7.4359627704783378e+01  6.5591475723301443e+01  7.2623887891653823e+01  6.8821632597853110e+01  6.8855648195604616e+01  7.5443810934087551e+01  6.0255987948530347e+01  6.9114003708013726e+01  7.3341639587701877e+01  6.4213143937216287e+01  6.1205367923171686e+01  7.3076740285452104e+01  6.8646373150765385e+01  6.7442389492398306e+01  6.7383004982999424e+01  6.5638503759381933e+01  7.1357353433790109e+01  6.2645919383282475e+01  7.1703466298495840e+01  6.2458910687364046e+01  6.4639374477034650e+01  6.5373541220850157e+01  6.9218149641992767e+01  6.6776197748826362e+01  6.1142907749347231e+01  6.9050260673655956e+01  6.8506275193048694e+01  7.2792290698548328e+01  6.7283199482083091e+01  7.4340410590377218e+01  6.5788429586791878e+01  6.3572423754485222e+01  7.0974775597216293e+01  7.5583889846258813e+01  6.6015029294319703e+01  6.5522302243314542e+01  6.8906273110174212e+01  6.4089142429544538e+01  6.8939517712686282e+01  6.5458555680965347e+01  6.6083466519908839e+01  5.9953782408931154e+01  7.0970165930909204e+01  6.6078492579877562e+01  6.5974720581794571e+01  7.0756088550907961e+01  7.5762353654327825e+01  6.2642575183350694e+01  6.2599281451418214e+01  6.2078288466263729e+01  6.9767941383038263e+01  7.2854162399465935e+01  6.8819805551768809e+01  7.2820110569464731e+01  6.8868783480889235e+01  7.0849917650661624e+01  7.0647604745029000e+01  6.5166061743964732e+01  6.5371696218220833e+01  6.4079296754325696e+01  6.4212425501921558e+01  6.4436038727104972e+01  5.9961566139116634e+01  6.8909646246680481e+01  5.9682888104262751e+01  6.5530657664486981e+01  7.5493913085853933e+01  6.5263335612652412e+01  7.6341962037701151e+01  6.5350171440222979e+01  6.5331585454023013e+01  7.6094562421163729e+01  5.9475703411126695e+01  6.9041746840659243e+01  6.0185858832430348e+01  6.8995002614023377e+01  6.9004323281801803e+01  7.2527561578673684e+01  6.9672009238397493e+01  6.8544178557959754e+01  7.3055861708349212e+01  6.4590080777058262e+01  6.0458628651858341e+01  6.7850153191440498e+01  7.3821965884688765e+01  6.1652802333138055e+01  6.2202905160655632e+01  6.4784283149893753e+01  6.0121859186462380e+01  6.3870340584355773e+01  7.0250215020808540e+01  6.8825222023936917e+01  7.3323685654649708e+01  7.4827105399212570e+01  6.8770224016793392e+01  7.0344107877365474e+01  6.6402264839503218e+01  6.5944384380288682e+01  6.4020068808183893e+01  6.2404781104260486e+01  6.2494621603429387e+01  5.9631142785429063e+01  7.6155934146556248e+01  7.5165276681878609e+01  6.1555094571136877e+01  6.8066642787943636e+01  7.3776150774173956e+01  6.5777599286590487e+01  6.9828041021538780e+01  6.2366220722084933e+01  6.5604796798599097e+01  6.6478538899308276e+01  7.1892842884187658e+01  6.2759771616986889e+01  6.5876652334791601e+01  7.6292078480113801e+01  6.5289487991681014e+01  5.9517714734826924e+01  6.9031882531501878e+01  6.6108587719397633e+01  6.2916900416573100e+01  7.1162461676899881e+01  6.8933931545927294e+01  6.8946792914293681e+01  6.5456849329876135e+01  6.5441125216867135e+01  6.6754602535717993e+01  7.5675300059139701e+01  7.5529574726622414e+01  7.5824001281505772e+01  7.1394837940753206e+01  7.1295739610647374e+01  7.5214241103873590e+01  6.4813373889324609e+01  6.8840339950256933e+01  6.8769023071023966e+01  6.5709016009195977e+01  6.7040254199418442e+01  6.6544846215834056e+01  7.2068266648244446e+01  6.2917866363164286e+01  5.9882059377313553e+01  6.2445210052835293e+01  6.2117738707423506e+01  6.9538199100738225e+01  6.4222972761932382e+01  6.5756430013461753e+01  7.0824060912010935e+01  7.0776647590424957e+01  6.4372580312182379e+01  6.4598417736655918e+01  7.1751262118576477e+01  7.1987494155392682e+01  6.7110887893894244e+01  6.0914428225584679e+01  6.4299010909468720e+01  6.8278288555907380e+01  7.2998068077169634e+01  6.6820672184209158e+01  7.4106018258889904e+01  6.7659214871596021e+01  6.8164377539238046e+01  6.8545667186719839e+01  7.3185859673397076e+01  7.3545543507363433e+01  6.8281225369335488e+01  6.3691774340268083e+01  6.3886135349585508e+01  7.3169262214507839e+01  6.8722077337991308e+01  7.2842094585692692e+01  7.4003285885562676e+01  6.7858170266762471e+01  6.9003117272116441e+01  6.4162317421616294e+01  6.3545918778593247e+01  6.3617649763272851e+01  7.0908221889517634e+01  7.0813630466143280e+01  7.4706158416519102e+01  6.2260595866860726e+01  6.2128411899208260e+01  6.1928666416212842e+01  7.1773523623140846e+01  6.2738268117061644e+01  6.4413735402308191e+01  7.1723212457033014e+01  6.4941547000113871e+01  6.5189419210796729e+01  6.6434342110310922e+01  7.0731643614133958e+01  7.0633038083911316e+01  6.7064958342268994e+01  6.7810877413639659e+01  6.0157757646580983e+01  7.5144976434493074e+01  6.5678305916239580e+01  7.0029136411991644e+01  6.0737273324152177e+01  6.0477184294078903e+01  6.6040873109162064e+01  6.5907562099124306e+01  6.5867818296040994e+01  6.8627870896992235e+01  7.2294701108399281e+01  7.2468887126151486e+01  6.3138510987971834e+01  6.3251729231249968e+01  6.6101312038122231e+01  6.9478977563122697e+01  7.0569686024396049e+01  6.8860595174159570e+01  6.5695085566822783e+01  6.2661240974551944e+01  6.5553970358645017e+01  6.8889125307016243e+01  6.9765375488926367e+01  5.9446023587159601e+01  6.5250584973861976e+01  7.6377685710920829e+01  6.9048779738940055e+01  7.0826352516023022e+01  6.8652462172121020e+01  7.2415798361651099e+01  6.5304187678278183e+01  6.2649822201287989e+01  6.5748914159871703e+01  7.0717916618149829e+01  7.0841205951583902e+01  7.2583259041278751e+01  6.6228022867215387e+01  6.0956448782867135e+01  6.0781774877471932e+01  6.0538507767157832e+01  6.0923108558624172e+01  6.3277691534753792e+01  7.2490034275463543e+01  6.9443626624624756e+01  6.4250334913158554e+01  6.4224847531493623e+01  6.4305663659985754e+01  6.3114376696898361e+01  6.3001178688190500e+01  7.0307630560670148e+01  7.0163445197120723e+01  7.4600069375022372e+01  7.2818376873615193e+01  6.5998582860382285e+01  7.5093303128743401e+01  6.8677257781049718e+01  6.6814802219266141e+01  6.5220096877962121e+01  7.5540001869430398e+01  7.1173130709143550e+01  6.1900040718148595e+01  6.1841003745060867e+01  6.0090794148360949e+01  6.8417755642874809e+01  7.4199459818510448e+01  6.7519867707668567e+01  6.8662846311276041e+01  6.8759103577340682e+01  6.8806956718425766e+01  7.1475313978712350e+01  6.4117554629083145e+01  7.5843132114247510e+01  6.0425777978248362e+01  7.2441265531709419e+01  6.7864589149758572e+01  6.8925484397945937e+01  6.5479045637059968e+01  6.2137075726101962e+01  6.7003074791927972e+01  7.2737843490183749e+01  6.3653598664175242e+01  7.3673319144490975e+01  6.4789432060860591e+01  6.0154368957756240e+01  6.8853222459042797e+01  6.7877714213252716e+01  7.2171316336040178e+01  6.5651921804823886e+01  7.0750823763688800e+01  6.5264158912440237e+01  6.9043701641464111e+01  7.6352464057457212e+01  5.9466708702046667e+01  6.8062344969331363e+01  6.5794803964742798e+01  6.0659522367812883e+01  6.5880635851063460e+01  6.8777416647069543e+01  6.7791472399005428e+01  6.5608681880545404e+01  6.3353981116671065e+01  7.5301442530937507e+01  6.8880778789946348e+01  6.8844369116940783e+01  6.8329353733981293e+01  6.6080450457145503e+01  6.6423780054943322e+01  6.6947486773384625e+01  6.8895007502018188e+01  6.5565032707166935e+01  6.8911888102486017e+01  6.5404054236643191e+01  7.0202248991254606e+01  7.3497963451808999e+01  6.9321905556244559e+01  6.1365072421149613e+01  7.3604514133933009e+01  6.4406422690127386e+01  6.1268362402075041e+01  6.1737179240796571e+01  6.1717395642680870e+01  6.6617907856816572e+01  6.4370206019093132e+01  6.0235111153020831e+01  7.0561600511464434e+01  7.4133901039909674e+01  6.7457236174144569e+01  6.4477956833686619e+01  6.2510898043574997e+01  6.9184699103627608e+01  6.8812786409828107e+01  6.0022876889479207e+01  7.3286699487186610e+01  6.8304012391370648e+01  7.0784171994825925e+01  6.4265939423572746e+01  7.0830224642730997e+01  7.0420070055297387e+01  7.4518467587802618e+01  6.5530359859233911e+01  6.8899446757509665e+01  6.8877817666393710e+01  6.5565710274285053e+01  6.5518332820878101e+01  6.5517464523904906e+01  6.0097664028614417e+01  7.5708350117750911e+01  6.8741308607446655e+01  7.3171034606028243e+01  6.4207184955858509e+01  7.0409748228805370e+01  6.9671438542115567e+01  6.8338873111329264e+01  7.1134937531063585e+01  7.2785499682126556e+01  7.3645642365283351e+01  6.5714545886799030e+01  6.8984220739353617e+01  6.5384289972029464e+01  6.1012601181535850e+01  6.8889495519637933e+01  6.5153139214445744e+01  7.4972641474142378e+01  6.5657968511950912e+01  7.4658695229594315e+01  7.4880289196553235e+01  6.0345251757385235e+01  6.0232936882328197e+01  7.5438581970820465e+01  7.5454419343216301e+01  7.2126432963822126e+01  6.5298124155035055e+01  6.5072563504238715e+01  6.5535616770822131e+01  6.5252344196671459e+01  6.4612092347891107e+01  6.6545220212791250e+01  5.9933203029074413e+01  6.4048238308039629e+01  6.5962112420502947e+01  7.2938581602387472e+01  7.1791703533381906e+01  6.5787190202735701e+01  6.4369027774768512e+01  6.4139171668920653e+01  6.5013660684151290e+01  6.2208727021945286e+01  7.2650381379515949e+01  7.0945328018787407e+01  6.8923999620202153e+01  6.9238124293345834e+01  6.9098645654109561e+01  7.3151829232334180e+01  5.9750722367341304e+01  7.6012552607804849e+01  7.5937831486725884e+01  7.5945394806927396e+01  5.9837829533465715e+01  5.9699310304445717e+01  6.1130547476144450e+01  6.8359461661544273e+01  6.1443108411825015e+01  6.9884867523133906e+01  6.2402687086688765e+01  6.5438502331352936e+01  6.5404916360667457e+01  6.8947938685991545e+01  6.8979752775043565e+01  6.8965906420981440e+01  6.4200450975978825e+01  7.6075983905562083e+01  6.8989127114330358e+01  6.5360560696338680e+01  6.0429534858610971e+01  7.0178910972587516e+01  6.4583555751361232e+01  6.9524883994140410e+01  7.3100646452519797e+01  6.8935412662817029e+01  6.5539825284646213e+01  6.8906635888654179e+01  6.3240237990282587e+01  6.1675041955260149e+01  6.1696000524358723e+01  6.1271739555383419e+01  7.4033220043249429e+01  6.4390813385843813e+01  7.5366820769387886e+01  6.1434899352265440e+01  6.8825861442274785e+01  6.5626718195988516e+01  6.9434210287416292e+01  7.0132602257908502e+01  5.9793430441358211e+01  6.4758790019101824e+01  7.5346049942239517e+01  6.1869319880050291e+01  6.5253228356016464e+01  6.2867134740624117e+01  7.2552489280679836e+01  6.7629848377578014e+01  6.4003815611137568e+01  6.4652982564841480e+01  6.3843418942662382e+01  6.5541987072319316e+01  7.4130706207712350e+01  7.1344904737550863e+01  6.7031152234913790e+01  6.6015108758427104e+01  6.5743651860257117e+01  6.6220252325234526e+01  6.6297409514817431e+01  6.4326583334725782e+01  6.8508796317350232e+01  6.8859930925988166e+01  6.7218235519665015e+01  6.5540736390809286e+01  6.8904959301770162e+01  6.5650878299945617e+01  7.3267191226836445e+01  6.8598173617852225e+01  7.0849552983358208e+01  7.0799342022470753e+01  7.1054314094761992e+01  6.6055444440313423e+01  6.5650232394450171e+01  6.2271302452418261e+01  6.2283902413547892e+01  6.2087409588315353e+01  6.6903840182661540e+01  6.0217572034719886e+01  6.5529863465539705e+01  6.7546019819311212e+01  7.5384176958294859e+01  7.5595514866951277e+01  7.4597204718275890e+01  6.7407999443910867e+01  6.7656613100984032e+01  6.7317792058366820e+01  6.5557605160498994e+01  6.3415562055075306e+01  7.4267424153208950e+01  7.2561896349014972e+01  6.0257084918546113e+01  7.1056605983524506e+01  7.1442755366427065e+01  6.5820369092584528e+01  7.3990712365792675e+01  6.2747293481067238e+01  7.1555292483220910e+01  6.2584145571457341e+01  7.1624440543300224e+01  6.5513262673882835e+01  6.5779508492675674e+01  6.3680385636837123e+01  7.2786498903305343e+01  6.3565814085348883e+01  6.2490046249992190e+01  6.6037933674882765e+01  6.5659339585075060e+01  7.2801420395549059e+01  6.4450356439269157e+01  6.7448077723367746e+01  7.0740570936904206e+01  6.7447853741458104e+01  6.3604541831427206e+01  7.1476246032284251e+01  5.9699374499559973e+01  7.6045703141432838e+01  7.105