<?xml version="1.0"?>
<VTKFile type="UnstructuredGrid"  version="0.1"  >
<UnstructuredGrid>
<Piece  NumberOfPoints="2331" NumberOfCells="4248">
<Points>
<DataArray  type="Float64"  NumberOfComponents="3"  format="ascii">0 0.3 0  0 0 0  0.04999999999999999 0 0  0.0514582251803892 0.02410733605106462 0  0.0558116365147896 0.04786313285751154 0  0.06299675146291706 0.07092097740850717 0  0.07290879486935808 0.09294463440875382 0  0.08540322682126872 0.1136129493462312 0  0.1002978503657798 0.132624531648159 0  0.117375468351841 0.1497021496342203 0  0.1363870506537689 0.1645967731787313 0  0.1570553655912463 0.177091205130642 0  0.1790790225914929 0.187003248537083 0  0.2021368671424885 0.1941883634852104 0  0.2258926639489354 0.1985417748196108 0  0.25 0.2 0  0.2741073360510646 0.1985417748196108 0  0.2978631328575116 0.1941883634852104 0  0.3209209774085071 0.187003248537083 0  0.3429446344087537 0.177091205130642 0  0.3636129493462312 0.1645967731787313 0  0.3826245316481591 0.1497021496342202 0  0.3997021496342202 0.132624531648159 0  0.4145967731787313 0.1136129493462312 0  0.427091205130642 0.09294463440875371 0  0.4370032485370829 0.07092097740850713 0  0.4441883634852104 0.04786313285751155 0  0.4485417748196108 0.02410733605106461 0  0.45 0 0  0.55 0 0  0.5514582251803892 0.02410733605106462 0  0.5558116365147896 0.04786313285751154 0  0.5629967514629171 0.07092097740850717 0  0.5729087948693581 0.09294463440875382 0  0.5854032268212688 0.1136129493462312 0  0.6002978503657798 0.132624531648159 0  0.617375468351841 0.1497021496342203 0  0.6363870506537689 0.1645967731787313 0  0.6570553655912463 0.177091205130642 0  0.6790790225914929 0.187003248537083 0  0.7021368671424885 0.1941883634852104 0  0.7258926639489354 0.1985417748196108 0  0.75 0.2 0  0.7741073360510646 0.1985417748196108 0  0.7978631328575116 0.1941883634852104 0  0.8209209774085071 0.187003248537083 0  0.8429446344087537 0.177091205130642 0  0.8636129493462312 0.1645967731787313 0  0.8826245316481591 0.1497021496342202 0  0.8997021496342202 0.132624531648159 0  0.9145967731787312 0.1136129493462312 0  0.927091205130642 0.09294463440875371 0  0.9370032485370829 0.07092097740850713 0  0.9441883634852104 0.04786313285751155 0  0.9485417748196108 0.02410733605106461 0  0.95 0 0  1 0 0  1 0.3 0  0.9758926639489353 0.3014582251803892 0  0.9521368671424885 0.3058116365147896 0  0.9290790225914928 0.3129967514629171 0  0.9070553655912461 0.3229087948693581 0  0.8863870506537688 0.3354032268212687 0  0.867375468351841 0.3502978503657798 0  0.8502978503657798 0.367375468351841 0  0.8354032268212687 0.3863870506537689 0  0.822908794869358 0.4070553655912464 0  0.8129967514629171 0.4290790225914929 0  0.8058116365147896 0.4521368671424885 0  0.8014582251803892 0.4758926639489354 0  0.8 0.4999999999999999 0  0.8014582251803892 0.5241073360510646 0  0.8058116365147896 0.5478631328575115 0  0.8129967514629171 0.5709209774085071 0  0.8229087948693581 0.5929446344087538 0  0.8354032268212688 0.6136129493462312 0  0.8502978503657798 0.632624531648159 0  0.867375468351841 0.6497021496342202 0  0.8863870506537689 0.6645967731787313 0  0.9070553655912463 0.677091205130642 0  0.9290790225914929 0.6870032485370829 0  0.9521368671424885 0.6941883634852104 0  0.9758926639489354 0.6985417748196108 0  1 0.7 0  1 1 0  0.95 1 0  0.9485417748196108 0.9758926639489353 0  0.9441883634852104 0.9521368671424885 0  0.9370032485370829 0.9290790225914928 0  0.927091205130642 0.9070553655912463 0  0.9145967731787312 0.8863870506537688 0  0.8997021496342201 0.8673754683518409 0  0.882624531648159 0.8502978503657798 0  0.863612949346231 0.8354032268212686 0  0.8429446344087537 0.822908794869358 0  0.8209209774085071 0.8129967514629171 0  0.7978631328575114 0.8058116365147896 0  0.7741073360510646 0.8014582251803892 0  0.75 0.8 0  0.7258926639489353 0.8014582251803892 0  0.7021368671424885 0.8058116365147896 0  0.6790790225914928 0.8129967514629171 0  0.6570553655912461 0.8229087948693581 0  0.6363870506537688 0.8354032268212688 0  0.617375468351841 0.8502978503657798 0  0.6002978503657798 0.867375468351841 0  0.5854032268212687 0.8863870506537689 0  0.572908794869358 0.9070553655912463 0  0.5629967514629171 0.9290790225914929 0  0.5558116365147896 0.9521368671424885 0  0.5514582251803892 0.9758926639489355 0  0.55 0.9999999999999999 0  0.45 0.9999999999999999 0  0.4485417748196108 0.9758926639489353 0  0.4441883634852104 0.9521368671424885 0  0.4370032485370829 0.9290790225914928 0  0.427091205130642 0.9070553655912463 0  0.4145967731787313 0.8863870506537688 0  0.3997021496342201 0.8673754683518409 0  0.382624531648159 0.8502978503657798 0  0.363612949346231 0.8354032268212686 0  0.3429446344087536 0.822908794869358 0  0.3209209774085071 0.8129967514629171 0  0.2978631328575115 0.8058116365147896 0  0.2741073360510646 0.8014582251803892 0  0.25 0.8 0  0.2258926639489353 0.8014582251803892 0  0.2021368671424885 0.8058116365147896 0  0.1790790225914928 0.8129967514629171 0  0.1570553655912462 0.8229087948693581 0  0.1363870506537688 0.8354032268212688 0  0.117375468351841 0.8502978503657798 0  0.1002978503657797 0.867375468351841 0  0.08540322682126869 0.8863870506537689 0  0.07290879486935797 0.9070553655912463 0  0.06299675146291703 0.9290790225914929 0  0.05581163651478957 0.9521368671424885 0  0.0514582251803892 0.9758926639489355 0  0.04999999999999999 0.9999999999999999 0  0 1 0  -0 0.7000000000000001 0  0.0241073360510646 0.6985417748196108 0  0.04786313285751161 0.6941883634852104 0  0.07092097740850711 0.6870032485370829 0  0.09294463440875372 0.677091205130642 0  0.1136129493462312 0.6645967731787312 0  0.1326245316481591 0.6497021496342202 0  0.1497021496342202 0.632624531648159 0  0.1645967731787313 0.6136129493462312 0  0.177091205130642 0.5929446344087537 0  0.187003248537083 0.5709209774085071 0  0.1941883634852104 0.5478631328575115 0  0.1985417748196108 0.5241073360510646 0  0.2 0.5 0  0.1985417748196108 0.4758926639489353 0  0.1941883634852104 0.4521368671424885 0  0.1870032485370829 0.4290790225914928 0  0.177091205130642 0.4070553655912463 0  0.1645967731787313 0.3863870506537688 0  0.1497021496342202 0.3673754683518409 0  0.132624531648159 0.3502978503657798 0  0.113612949346231 0.3354032268212686 0  0.09294463440875361 0.322908794869358 0  0.07092097740850711 0.3129967514629171 0  0.04786313285751148 0.3058116365147896 0  0.02410733605106464 0.3014582251803892 0  0.6985417748196108 0.5241073360510646 0  0.7 0.5 0  0.6985417748196108 0.4758926639489353 0  0.6941883634852104 0.4521368671424885 0  0.6870032485370829 0.4290790225914928 0  0.677091205130642 0.4070553655912463 0  0.6645967731787312 0.3863870506537688 0  0.6497021496342201 0.3673754683518409 0  0.632624531648159 0.3502978503657798 0  0.613612949346231 0.3354032268212686 0  0.5929446344087537 0.322908794869358 0  0.5709209774085071 0.3129967514629171 0  0.5478631328575114 0.3058116365147896 0  0.5241073360510646 0.3014582251803892 0  0.4999999999999999 0.3 0  0.4758926639489353 0.3014582251803892 0  0.4521368671424885 0.3058116365147896 0  0.4290790225914928 0.3129967514629171 0  0.4070553655912462 0.3229087948693581 0  0.3863870506537688 0.3354032268212687 0  0.367375468351841 0.3502978503657798 0  0.3502978503657798 0.367375468351841 0  0.3354032268212687 0.3863870506537689 0  0.322908794869358 0.4070553655912464 0  0.3129967514629171 0.4290790225914929 0  0.3058116365147896 0.4521368671424885 0  0.3014582251803892 0.4758926639489354 0  0.3 0.4999999999999999 0  0.3014582251803892 0.5241073360510646 0  0.3058116365147896 0.5478631328575115 0  0.3129967514629171 0.5709209774085071 0  0.3229087948693581 0.5929446344087538 0  0.3354032268212687 0.6136129493462312 0  0.3502978503657798 0.632624531648159 0  0.367375468351841 0.6497021496342202 0  0.3863870506537689 0.6645967731787313 0  0.4070553655912463 0.677091205130642 0  0.4290790225914929 0.6870032485370829 0  0.4521368671424885 0.6941883634852104 0  0.4758926639489354 0.6985417748196108 0  0.4999999999999999 0.7 0  0.5241073360510646 0.6985417748196108 0  0.5478631328575116 0.6941883634852104 0  0.5709209774085071 0.6870032485370829 0  0.5929446344087537 0.677091205130642 0  0.6136129493462312 0.6645967731787312 0  0.6326245316481591 0.6497021496342202 0  0.6497021496342202 0.632624531648159 0  0.6645967731787312 0.6136129493462312 0  0.677091205130642 0.5929446344087537 0  0.6870032485370829 0.5709209774085071 0  0.6941883634852104 0.5478631328575115 0  0 0.15 0  1 0.15 0  1 0.85 0  0 0.8500000000000001 0  0 0.075 0  1 0.075 0  1 0.925 0  0 0.925 0  0.5 0.8127595604293815 0  0.5069440078039168 0.190422209288238 0  0.25 0.3127595604293815 0  0.756944007803917 0.3095777907117619 0  0.756944007803917 0.6904222092882382 0  0.25 0.6872404395706185 0  0 0.225 0  0.4255768646051012 0.2241073097134061 0  1 0.7749999999999999 0  0.6773391559270888 0.2766774022734219 0  1 0.225 0  0.6755768646051011 0.7241073097134062 0  0 0.7750000000000001 0  0.5818971135297744 0.2287925518358889 0  0.8318971135297746 0.728792551835889 0  0.1659156081861886 0.7301636995921477 0  0.08376842746533225 0.2299656297760495 0  0.4236002201977974 0.7746535834185855 0  0.0840843918138115 0.7698363004078523 0  0.3340843918138113 0.7301636995921477 0  0.3340843918138114 0.2698363004078523 0  0.9159156081861887 0.2301636995921477 0  0.5840843918138116 0.7698363004078522 0  0.1659156081861887 0.2698363004078523 0  0.9162315725346678 0.7700343702239506 0  0.8340843918138114 0.2698363004078523 0  0.75 0.6146645247768686 0  0.5 0.1125158665330878 0  0.75 0.3874841334669124 0  0.2504983345544904 0.6122915843562002 0  0.2504983345544902 0.3877084156437999 0  0.5 0.8879783056303169 0  0.7005361650220154 0.3333055947145943 0  0.70416808765371 0.6599554817221275 0  0.449930214263529 0.1678187287522426 0  0.2247310981387008 0.7415600637745463 0  0.5155081196221678 0.7563797802146907 0  0.2752689018612993 0.2584399362254537 0  0.05605196690611226 0.8246131191226815 0  0.9439480330938878 0.1
[...]
<PointData  Scalars="Temperature"> 
<DataArray  type="Float64"  Name="Temperature"  format="ascii">1.3116900859601165e+02  1.4143514458470801e+02  1.4141799090797633e+02  1.4118102378672199e+02  1.4051905426698499e+02  1.3949184676084374e+02  1.3812255143551977e+02  1.3643042543557098e+02  1.3443529907115362e+02  1.3211265961830986e+02  1.2940040999562743e+02  1.2632841368845034e+02  1.2298165330624187e+02  1.1942608078559142e+02  1.1572536363050718e+02  1.1196487560914429e+02  1.0815577032523812e+02  1.0429271600000833e+02  1.0046148607970086e+02  9.6650865064605725e+01  9.3043921162573596e+01  8.9750004692821378e+01  8.6889782667715181e+01  8.4623497609861985e+01  8.2934248907808040e+01  8.1801836460108888e+01  8.1106531098699932e+01  8.0757884386773767e+01  8.0656495899630173e+01  8.0087700795908773e+01  7.9989754066101170e+01  7.9664797621878833e+01  7.9003172554321608e+01  7.7905299154182998e+01  7.6237980606562431e+01  7.3985623059253527e+01  7.1199594895776400e+01  6.7981070563319292e+01  6.4487955925583549e+01  6.0923616314980464e+01  5.7476655219130009e+01  5.4295812998774892e+01  5.1455554952871800e+01  4.8972565397513257e+01  4.6831758603728190e+01  4.5024504837286706e+01  4.3482167818308930e+01  4.2188934652023605e+01  4.1122532676953881e+01  4.0236222000721163e+01  3.9510305152303431e+01  3.8912582019261500e+01  3.8438607542130143e+01  3.8087004337345661e+01  3.7861618404954939e+01  3.7781270259199729e+01  3.7774755104314814e+01  4.1148636416429113e+01  4.1294258000873363e+01  4.1715126893574244e+01  4.2368663379296763e+01  4.3168685450315479e+01  4.4006219432625414e+01  4.4740217297555660e+01  4.5249762065109991e+01  4.5427234274020073e+01  4.5236657675325930e+01  4.4625984738071985e+01  4.3700112831570763e+01  4.2553666572389709e+01  4.1315037809045087e+01  4.0105901290299684e+01  3.8994199671112661e+01  3.7979670559849602e+01  3.7056168606761197e+01  3.6167097348742146e+01  3.5291035621205850e+01  3.4439002786010796e+01  3.3604806220124203e+01  3.2841555202593781e+01  3.2185771609962643e+01  3.1685825975888758e+01  3.1376290553793915e+01  3.1267573018463665e+01  2.9025783824795329e+01  2.9029230288267385e+01  2.9079505341976045e+01  2.9220863606476506e+01  2.9442104510406224e+01  2.9741783387385766e+01  3.0119718603291684e+01  3.0580021361181533e+01  3.1133721737673728e+01  3.1790869483991088e+01  3.2566609194375751e+01  3.3460789672573434e+01  3.4454545348954142e+01  3.5556600954484807e+01  3.6737620159098427e+01  3.8033084256492430e+01  3.9424119901213032e+01  4.0898142356453519e+01  4.2409378480300859e+01  4.3901099443233939e+01  4.5253791104106334e+01  4.6432196061342999e+01  4.7322423410688160e+01  4.7950657954067985e+01  4.8308082419924737e+01  4.8471061902511217e+01  4.8529940570463204e+01  4.8539735695426273e+01  4.8862317139762290e+01  4.8977614947340420e+01  4.9314677748583172e+01  4.9914908509250665e+01  5.0841798512836348e+01  5.2173832414690736e+01  5.3895920433555581e+01  5.6004362274279281e+01  5.8394411258750175e+01  6.0988616437932841e+01  6.3595332961213877e+01  6.6043883715491305e+01  6.8218619238632243e+01  6.9984247887553195e+01  7.1339666202040689e+01  7.2283423470589639e+01  7.2903343082012583e+01  7.3275203268928934e+01  7.3478920833552834e+01  7.3580319265752152e+01  7.3618042052287578e+01  7.3618034228403360e+01  7.3600485157598925e+01  7.3575828856321763e+01  7.3552646117763629e+01  7.3536940986225204e+01  7.3530780586296615e+01  7.3530701424415511e+01  7.3998069238728050e+01  7.4020122478569093e+01  7.4092481033129332e+01  7.4236119177667234e+01  7.4495072903458095e+01  7.4932715236051607e+01  7.5642737112005790e+01  7.6723017152060223e+01  7.8288637420542315e+01  8.0389452349549998e+01  8.3084036701910591e+01  8.6313069690653236e+01  8.9980777385623455e+01  9.3857476554111543e+01  9.7751385531430060e+01  1.0149631518558577e+02  1.0504104694763022e+02  1.0843195463823614e+02  1.1179375436824742e+02  1.1515224703619846e+02  1.1851022758924012e+02  1.2175764836989323e+02  1.2478765004623446e+02  1.2742420152287868e+02  1.2942955292579398e+02  1.3071726478328102e+02  4.0376312310100843e+01  4.1584666722608944e+01  4.3006681061524539e+01  4.4615043608229961e+01  4.6409291828973124e+01  4.8448398877396706e+01  5.0813145008969883e+01  5.3554001286620363e+01  5.6726234753038582e+01  6.0227123250992818e+01  6.4012583946126469e+01  6.8015030846176913e+01  7.2092478671736984e+01  7.6206793570633735e+01  8.0311887040937307e+01  8.4395951734866500e+01  8.8392425133489240e+01  9.2269942250103227e+01  9.5877137815658244e+01  9.9086100041271820e+01  1.0161741094728033e+02  1.0336096047238000e+02  1.0412476485034986e+02  1.0385165597203472e+02  1.0249825235550455e+02  1.0020750941602384e+02  9.7126873423824804e+01  9.3494928110610047e+01  8.9620198794702091e+01  8.5744731287641656e+01  8.2041690492724257e+01  7.8473596160497848e+01  7.5104733047960835e+01  7.1840488688382109e+01  6.8613877481261454e+01  6.5436364809432561e+01  6.2260419089815429e+01  5.9210662599984147e+01  5.6276170726212861e+01  5.3545955368089459e+01  5.0997235450067535e+01  4.8648292200252953e+01  4.6483395503284591e+01  4.4536781596800090e+01  4.2783349628475243e+01  4.1279941905106739e+01  4.0072543215574271e+01  3.9193011009283609e+01  3.8683027863756628e+01  3.8560040224813868e+01  3.8823792842701110e+01  3.9443499893292071e+01  1.3642648524555568e+02  3.9458738636785561e+01  3.0100368297702250e+01  7.3675467610369395e+01  1.3989439987039671e+02  3.8297086181636324e+01  2.9353669475037993e+01  7.3571008410825428e+01  5.0178696949359143e+01  7.9703013347001701e+01  1.1023446335288727e+02  4.9188898260791241e+01  3.6694391728524167e+01  7.3512777881495680e+01  1.3294912779868773e+02  8.9218798314566698e+01  3.0864281858393120e+01  5.7024919774310767e+01  4.0584098622490806e+01  3.9725653339981484e+01  7.3854736924863104e+01  7.0461589517844658e+01  3.4080620953003944e+01  7.3797900028652563e+01  1.2990876751800494e+02  5.6400237993552210e+01  7.3827296397153930e+01  6.6006622769631264e+01  1.0182361656479954e+02  4.1746846966154600e+01  4.5161680525153628e+01  1.2058966698410553e+02  3.1612546464811896e+01  4.5274608501074773e+01  3.7682319222132193e+01  8.0393819692212929e+01  4.6821966381905099e+01  7.9337121406505503e+01  1.0630361082674737e+02  4.9373392034200677e+01  5.2060455235285438e+01  3.8241497420986072e+01  8.4764897750535056e+01  7.2128600504646514e+01  4.9540265642908352e+01  1.0850455844612738e+02  7.3700952465326836e+01  4.0284852573995899e+01  1.3411741000513800e+02  3.0671540826079987e+01  8.2390526027150557e+01  3.7522507184697446e+01  5.2258716904835374e+01  5.3079866651980552e+01  7.5338716332596263e+01  1.1498337014714463e+02  7.1249768376813918e+01  1.0508577236559641e+02  4.7147290121266039e+01  8.0383699819215920e+01  4.4206957544094045e+01  3.9510019895984165e+01  1.0102144992267723e+02  8.7230110480844445e+01  4.8695569762955202e+01  4.8891094976530276e+01  1.1475162018211229e+02  6.9712179724643192e+01  7.4747952274197189e+01  3.6241776627260762e+01  4.6159066337569733e+01  6.3416748522898658e+01  9.5198123939982125e+01  9.6963802971726707e+01  4.2082680449492464e+01  4.2869734957388289e+01  6.2418270156338998e+01  3.5621392514730950e+01  4.8119258110296492e+01  4.1717402778199542e+01  8.0372148064575242e+01  9.4475450880084409e+01  6.1052025163039659e+01  6.1827599228109257e+01  7.6322599060718005e+01  3.2705364168711540e+01  3.2759992470390536e+01  5.2655658067251387e+01  1.2646858943620593e+02  7.3945587936575095e+01  4.2804146394197744e+01  7.3544368951536271e+01  1.2463904993848186e+02  7.4128407198112313e+01  4.1182170603901554e+01  4.3482736192810137e+01  3.1349000827054162e+01  1.3086487732668209e+02  3.9329000765464684e+01  2.9950936037598986e+01  1.3715565338265205e+02  7.3637917401770096e+01  4.6248675157205589e+01  3.5342818483210202e+01  7.7724725870765994e+01  3.8063578182683756e+01  4.4915736044940061e+01  6.7123989832749444e+01  1.1998556649237608e+02  4.1423982951379791e+01  1.0118779002938011e+02  7.4850480034692595e+01  7.3641994530513898e+01  1.3115530648389975e+02  3.1426072559977658e+01  7.7959166234125902e+01  1.1038459673992568e+02  4.8796203434548950e+01  3.4266747688024431e+01  1.0712887021913275e+02  7.5209413711062666e+01  5.6803404460260808e+01  5.7189061825749633e+01  5.6914072664533144e+01  8.7963761437472613e+01  4.0369449616748099e+01  9.0766646040048499e+01  3.9857446524405844e+01  5.1099503087904040e+01  5.5529743270791556e+01  7.0039015778518035e+01  5.2669409245163116e+01  3.4354271426955783e+01  6.8313486804760259e+01  7.2758388589613503e+01  1.0247132519663704e+02  6.6410557143136899e+01  1.1934703554451717e+02  4.4677684706679941e+01  4.5504629875211428e+01  8.3892583856754513e+01  1.3266679258559662e+02  4.5640506733780590e+01  4.0785233921434632e+01  7.3812217754074624e+01  4.8254040825525806e+01  7.3755848419107224e+01  4.0059432522049249e+01  4.7115087545376504e+01  3.0503230370283937e+01  8.2862269385155145e+01  4.8935314527762209e+01  4.9107389904355458e+01  8.1273624020288239e+01  1.3460290125688363e+02  3.8191238245450258e+01  3.8383853610353533e+01  3.7058118029629561e+01  8.3041919802853840e+01  1.0638563241574488e+02  7.6626874226069461e+01  1.0494085815978598e+02  7.4071628293843489e+01  8.1266978382481867e+01  7.9524986159236420e+01  4.5116637507154493e+01  4.6472396694452662e+01  4.8011974087321320e+01  4.8628293165145998e+01  4.9876644155366996e+01  3.0503391329866666e+01  7.3951621834192238e+01  2.9703783573368558e+01  4.0965962444020221e+01  1.3169076801769026e+02  3.7913075368604503e+01  1.4102798105917077e+02  3.8843474280393259e+01  3.8640203985133482e+01  1.3826924957102446e+02  2.9111887438695135e+01  7.3541375753897782e+01  3.1145597940942658e+01  7.3615610550513409e+01  7.3593218181234221e+01  1.0333267663518743e+02  8.2548854655559339e+01  7.3682109109399107e+01  1.0576109020154921e+02  5.0891886346729109e+01  3.1980636015440147e+01  6.9519094139029193e+01  1.1371829861489293e+02  3.6301489410751053e+01  3.7048404322539547e+01  5.2193646664973727e+01  3.0972618184958804e+01  4.7110092140071558e+01  7.8190806469285960e+01  7.6096542492106067e+01  1.0976506717052818e+02  1.2463717547889667e+02  6.6596153251539789e+01  7.7938286948213559e+01  4.9500570221566051e+01  4.7589227029319041e+01  4.7949238189686945e+01  3.9102485257631336e+01  3.9274828214403890e+01  2.9556650197647546e+01  1.3895280831170453e+02  1.2817133706762661e+02  3.5270147141120844e+01  7.1276984203122225e+01  1.1381001653930798e+02  4.3733663017940778e+01  7.4276306484498292e+01  3.7973392912616227e+01  4.1840816013189482e+01  5.1863233265507496e+01  9.2912361969565154e+01  4.1150051587515726e+01  5.8409011361641170e+01  1.4047041339475950e+02  3.8190857582124970e+01  2.9231738584052859e+01  7.3555427183996500e+01  5.9622906597003890e+01  3.9016277847286801e+01  8.5906983128651689e+01  7.3642494375499354e+01  7.3708438881681715e+01  3.9978298133579564e+01  3.9847267375446989e+01  6.3357992074075177e+01  1.3366526295500384e+02  1.3208373695181137e+02  1.3528144380633626e+02  8.7425292372759912e+01  8.6781667817082976e+01  1.2874850016731412e+02  5.2225237193321014e+01  7.4543705440214708e+01  7.3472100735427716e+01  4.2605851405233388e+01  5.4748439857574994e+01  5.0000742577127689e+01  9.4592563943549607e+01  4.1890808240555636e+01  3.0281563802402314e+01  3.8600346472099339e+01  3.7547159201754503e+01  7.1783251735183583e+01  4.8605032835514784e+01  4.5226926504052877e+01  8.0581243763362579e+01  8.0172390261199368e+01  4.2845907938942474e+01  4.3746164243558908e+01  9.7771446517358868e+01  9.9674875398581392e+01  5.4666677453922645e+01  3.3365029916124122e+01  4.9021915013048954e+01  6.2715639589679732e+01  1.0486037756964164e+02  6.4022248416543150e+01  1.1722764511218772e+02  6.8891425395454277e+01  7.1123794164104069e+01  7.3314549369152715e+01  1.0675121467466013e+02  1.1106612841709568e+02  7.2209868324473106e+01  4.6115747930475486e+01  4.7051706898667696e+01  1.0751147976298076e+02  7.4414226844058959e+01  1.0437362137749544e+02  1.1656949867387182e+02  7.0382199240057545e+01  7.6802389497075879e+01  4.8592278145874971e+01  4.0597226115129445e+01  4.0723399293113289e+01  9.1576715410254891e+01  9.0861705573400144e+01  1.2350490410077842e+02  3.8806099629781606e+01  3.8349939238519383e+01  3.7131123562188684e+01  9.2096528018409558e+01  4.1257475746002449e+01  5.0047983161471052e+01  9.1422074804541637e+01  5.2848773744576668e+01  5.4365345772706789e+01  5.0769183184155388e+01  8.2346863813593146e+01  8.0991029525963029e+01  5.3962268487111750e+01  5.9559389860442096e+01  3.1095794846330641e+01  1.2793096947152317e+02  4.5667045923653376e+01  7.5282611449289448e+01  3.2990814093582401e+01  3.2132113528350793e+01  4.7481332081249278e+01  4.5736214398271095e+01  4.4150924934495514e+01  7.3112707455096299e+01  9.7535015800191971e+01  9.9292832866783655e+01  4.3261969314040620e+01  4.3826116551159096e+01  5.9763952299858879e+01  7.1513935518321347e+01  7.9481535746481825e+01  6.7078857771595480e+01  4.2707201492508858e+01  3.8352329803222048e+01  4.1087132611493111e+01  7.3737529074548576e+01  7.4217435055983501e+01  2.9027528621365445e+01  3.7777816095208046e+01  1.4142793788025077e+02  7.3530669955432927e+01  8.2248631257159886e+01  6.5943565810621507e+01  9.8548367356366384e+01  5.4957807926197454e+01  4.0710992540521318e+01  4.3789852432001595e+01  7.9854033628564679e+01  8.0907708987971475e+01  1.0401619039950076e+02  4.7397484427307582e+01  3.3546701136418299e+01  3.3043069139328814e+01  3.2267040374017895e+01  3.3556558035853854e+01  4.3889519064816589e+01  9.9135622364495305e+01  8.0487873026710290e+01  4.8737895487619141e+01  4.8585629558259285e+01  4.9134022121939203e+01  4.3086122338969346e+01  3.9083073602919946e+01  8.7073037124207900e+01  8.6127221555728312e+01  1.2234116359444921e+02  1.0322929948407686e+02  5.9063505192476619e+01  1.2744336807329945e+02  7.4817343744442908e+01  6.3780219290131313e+01  4.5616458218681942e+01  1.3218970717375421e+02  8.4981540630373260e+01  3.6211105031995217e+01  3.6342224906102714e+01  3.0909089035378788e+01  7.3873704436073140e+01  1.1798012819614664e+02  6.7905352639235105e+01  7.3432170625058347e+01  7.3829033187445333e+01  7.3787701934607156e+01  9.5813278233138092e+01  4.2241802077138210e+01  1.3549808770782823e+02  3.1941549783070126e+01  1.0312394497456178e+02  6.0456886890842604e+01  7.3801138976030586e+01  4.0289943591086988e+01  3.7012452199143517e+01  5.4943273034410026e+01  1.0275829925989970e+02  4.5874176674831219e+01  1.1342177417559790e+02  4.4017029513816119e+01  3.1058381510527695e+01  7.4266878804410140e+01  6.0227475506526666e+01  1.0078397928770931e+02  4.2122231869799116e+01  8.0400145617796113e+01  3.7921725782511949e+01  7.3538171727301048e+01  1.4114560990069114e+02  2.9086366109592845e+01  7.0812654107629697e+01  4.7377548141490998e+01  3.2586970879661152e+01  4.4575399614587951e+01  7.4234260211089392e+01  5.9212115007406027e+01  4.1981125997821209e+01  4.4336338045197031e+01  1.2965561613277688e+02  7.5616489177254451e+01  7.3962776955139176e+01  7.3427693354539016e+01  4.6615702405287671e+01  6.1553641476334967e+01  6.4699148802766189e+01  7.4022894844230450e+01  4.1409427335923986e+01  7.3872759122778390e+01  4.5528196038215874e+01  7.7254492639410202e+01  1.1019687933879806e+02  8.0129954708724497e+01  3.5210540195093188e+01  1.1237910607682507e+02  5.0089731002937846e+01  3.4710316313881805e+01  3.6516607998664817e+01  3.6257608137662189e+01  5.1268844436032033e+01  4.9458618614952563e+01  3.1315445038560838e+01  7.9099851994153894e+01  1.1706268526204666e+02  6.7322115485872160e+01  5.0203635900247370e+01  3.8418875306525052e+01  7.9058672361723410e+01  7.3647543692672954e+01  3.0682505464072488e+01  1.0839807463055965e+02  7.2919706331388596e+01  8.0175220262413873e+01  4.8810646543276249e+01  8.0573393327241476e+01  7.7969812106754219e+01  1.2119827557064301e+02  4.0751374229961662e+01  7.3656111826851017e+01  7.3935393340680420e+01  4.1318366246656801e+01  4.0799771622351628e+01  4.0770109845997226e+01  3.0944570779180790e+01  1.3401526082958819e+02  6.6022361802078436e+01  1.0909535377910392e+02  4.8662295072154542e+01  7.9303076458309349e+01  7.3267230885501405e+01  6.3447964401889614e+01  8.5997987204534709e+01  1.0512703702416624e+02  1.1193171320555143e+02  4.3644853311224750e+01  7.3610580275196085e+01  3.9200774942848334e+01  3.3941211684156229e+01  7.6233479020655508e+01  5.4295711835002265e+01  1.2624562388983851e+02  4.2683317557463539e+01  1.2281743119714427e+02  1.2508432114787524e+02  3.1627815451632227e+01  3.1285620392051253e+01  1.3110336310544986e+02  1.3127779498638131e+02  9.5444726605468844e+01  5.4953016597597170e+01  4.5447965447393301e+01  4.6249276289016123e+01  5.4794930921739031e+01  5.1186002990830673e+01  5.0245885445455265e+01  3.0424667093192383e+01  4.7902109885588217e+01  5.8805853047119221e+01  1.0561492159338151e+02  9.8137698231750761e+01  4.6307031402589551e+01  4.2931731559883346e+01  4.8257992521795103e+01  5.3464448909572731e+01  3.7615299862967362e+01  1.0394212650222038e+02  8.2345717714949018e+01  7.3754943959012877e+01  7.8781517314050660e+01  7.8075951452970514e+01  1.0852740436827177e+02  2.9898238224994927e+01  1.3735958308535294e+02  1.3653468750023669e+02  1.3662442129958501e+02  3.0161777801939639e+01  2.9755239040980587e+01  3.3998772629710771e+01  7.2015270013718975e+01  3.5232419084223295e+01  8.4007359411648437e+01  3.7518537678188110e+01  3.9797583229537963e+01  3.9440547672915336e+01  7.3672558326432821e+01  7.3643305435306274e+01  7.3663376308079478e+01  4.8521261163555380e+01  1.3806655733224989e+02  7.3620336297922293e+01  3.8954092290948410e+01  3.1909906218506904e+01  7.6511878442198068e+01  5.0740779023352943e+01  7.2450998345756020e+01  1.0775183390561352e+02  7.7094157933230392e+01  4.1091466800427668e+01  7.3985954692034454e+01  3.9813666703276198e+01  3.5745316044534789e+01  3.6001436034160868e+01  3.4553039287226241e+01  1.1606544486147662e+02  4.9800376379146499e+01  1.3031951123533807e+02  3.4990056568693852e+01  7.3550584343170996e+01  4.1744655571089254e+01  8.0560352349478123e+01  7.6465762984233578e+01  3.0022420439823154e+01  5.1823712813261231e+01  1.3012930016633666e+02  3.7242957876602780e+01  3.7805857278505947e+01  4.1789418610232978e+01  9.9917833992668790e+01  6.8376590912632054e+01  4.1780162459785281e+01  5.1359374520727521e+01  4.6941536152168844e+01  4.7349374049427325e+01  1.1764179614247129e+02  9.4786957085698475e+01  6.4912906534042548e+01  4.9530937094084472e+01  4.4582261236555041e+01  4.8467689720911075e+01  5.0651404598308389e+01  4.9372719789034868e+01  7.2636260764622648e+01  7.4982263100103950e+01  6.6442532476646917e+01  4.1092643508518734e+01  7.3977827590998217e+01  4.2329248042625927e+01  1.0888534599188883e+02  7.4679080965761869e+01  8.1542269670661440e+01  8.1358130867667043e+01  8.3911616103923734e+01  4.5846041442506227e+01  5.7147749299729682e+01  3.8340508630240208e+01  3.8755343106914864e+01  3.7894052943677387e+01  5.4143731561059127e+01  3.1291712229656792e+01  4.0784178261893359e+01  5.8080344672251641e+01  1.3051907752178826e+02  1.3279650118185873e+02  1.2208821921741561e+02  5.6428277369720341e+01  6.9002489380652776e+01  6.6898639482429672e+01  4.5676769760249314e+01  4.4664429523625131e+01  1.1915146708593191e+02  1.0061462367803179e+02  3.1442483338619564e+01  8.5107497870683602e+01  8.8628627845978954e+01  4.4418786917966891e+01  1.1589076648772951e+02  4.0874326226642296e+01  8.9375954229884499e+01  4.0162986468058911e+01  8.9826045109075764e+01  5.6220762637978680e+01  5.7709900940718285e+01  4.6033236981030647e+01  1.0233907476623574e+02  4.5463408472373445e+01  4.0067659105049053e+01  4.9113055751179985e+01  4.7511307168130799e+01  1.0328503370637461e+02  4.9998625878006813e+01  5.7017607401732889e+01  9.0332696581481898e+01  5.7752127562704139e+01  4.0719283533819244e+01  8.9210007867285213e+01  2.9752126626303212e+01  1.3772768802564602e+02  8.363