<?xml version="1.0"?>
<VTKFile type="UnstructuredGrid"  version="0.1"  >
<UnstructuredGrid>
<Piece  NumberOfPoints="2331" NumberOfCells="4248">
<Points>
<DataArray  type="Float64"  NumberOfComponents="3"  format="ascii">0 0.3 0  0 0 0  0.04999999999999999 0 0  0.0514582251803892 0.02410733605106462 0  0.0558116365147896 0.04786313285751154 0  0.06299675146291706 0.07092097740850717 0  0.07290879486935808 0.09294463440875382 0  0.08540322682126872 0.1136129493462312 0  0.1002978503657798 0.132624531648159 0  0.117375468351841 0.1497021496342203 0  0.1363870506537689 0.1645967731787313 0  0.1570553655912463 0.177091205130642 0  0.1790790225914929 0.187003248537083 0  0.2021368671424885 0.1941883634852104 0  0.2258926639489354 0.1985417748196108 0  0.25 0.2 0  0.2741073360510646 0.1985417748196108 0  0.2978631328575116 0.1941883634852104 0  0.3209209774085071 0.187003248537083 0  0.3429446344087537 0.177091205130642 0  0.3636129493462312 0.1645967731787313 0  0.3826245316481591 0.1497021496342202 0  0.3997021496342202 0.132624531648159 0  0.4145967731787313 0.1136129493462312 0  0.427091205130642 0.09294463440875371 0  0.4370032485370829 0.07092097740850713 0  0.4441883634852104 0.04786313285751155 0  0.4485417748196108 0.02410733605106461 0  0.45 0 0  0.55 0 0  0.5514582251803892 0.02410733605106462 0  0.5558116365147896 0.04786313285751154 0  0.5629967514629171 0.07092097740850717 0  0.5729087948693581 0.09294463440875382 0  0.5854032268212688 0.1136129493462312 0  0.6002978503657798 0.132624531648159 0  0.617375468351841 0.1497021496342203 0  0.6363870506537689 0.1645967731787313 0  0.6570553655912463 0.177091205130642 0  0.6790790225914929 0.187003248537083 0  0.7021368671424885 0.1941883634852104 0  0.7258926639489354 0.1985417748196108 0  0.75 0.2 0  0.7741073360510646 0.1985417748196108 0  0.7978631328575116 0.1941883634852104 0  0.8209209774085071 0.187003248537083 0  0.8429446344087537 0.177091205130642 0  0.8636129493462312 0.1645967731787313 0  0.8826245316481591 0.1497021496342202 0  0.8997021496342202 0.132624531648159 0  0.9145967731787312 0.1136129493462312 0  0.927091205130642 0.09294463440875371 0  0.9370032485370829 0.07092097740850713 0  0.9441883634852104 0.04786313285751155 0  0.9485417748196108 0.02410733605106461 0  0.95 0 0  1 0 0  1 0.3 0  0.9758926639489353 0.3014582251803892 0  0.9521368671424885 0.3058116365147896 0  0.9290790225914928 0.3129967514629171 0  0.9070553655912461 0.3229087948693581 0  0.8863870506537688 0.3354032268212687 0  0.867375468351841 0.3502978503657798 0  0.8502978503657798 0.367375468351841 0  0.8354032268212687 0.3863870506537689 0  0.822908794869358 0.4070553655912464 0  0.8129967514629171 0.4290790225914929 0  0.8058116365147896 0.4521368671424885 0  0.8014582251803892 0.4758926639489354 0  0.8 0.4999999999999999 0  0.8014582251803892 0.5241073360510646 0  0.8058116365147896 0.5478631328575115 0  0.8129967514629171 0.5709209774085071 0  0.8229087948693581 0.5929446344087538 0  0.8354032268212688 0.6136129493462312 0  0.8502978503657798 0.632624531648159 0  0.867375468351841 0.6497021496342202 0  0.8863870506537689 0.6645967731787313 0  0.9070553655912463 0.677091205130642 0  0.9290790225914929 0.6870032485370829 0  0.9521368671424885 0.6941883634852104 0  0.9758926639489354 0.6985417748196108 0  1 0.7 0  1 1 0  0.95 1 0  0.9485417748196108 0.9758926639489353 0  0.9441883634852104 0.9521368671424885 0  0.9370032485370829 0.9290790225914928 0  0.927091205130642 0.9070553655912463 0  0.9145967731787312 0.8863870506537688 0  0.8997021496342201 0.8673754683518409 0  0.882624531648159 0.8502978503657798 0  0.863612949346231 0.8354032268212686 0  0.8429446344087537 0.822908794869358 0  0.8209209774085071 0.8129967514629171 0  0.7978631328575114 0.8058116365147896 0  0.7741073360510646 0.8014582251803892 0  0.75 0.8 0  0.7258926639489353 0.8014582251803892 0  0.7021368671424885 0.8058116365147896 0  0.6790790225914928 0.8129967514629171 0  0.6570553655912461 0.8229087948693581 0  0.6363870506537688 0.8354032268212688 0  0.617375468351841 0.8502978503657798 0  0.6002978503657798 0.867375468351841 0  0.5854032268212687 0.8863870506537689 0  0.572908794869358 0.9070553655912463 0  0.5629967514629171 0.9290790225914929 0  0.5558116365147896 0.9521368671424885 0  0.5514582251803892 0.9758926639489355 0  0.55 0.9999999999999999 0  0.45 0.9999999999999999 0  0.4485417748196108 0.9758926639489353 0  0.4441883634852104 0.9521368671424885 0  0.4370032485370829 0.9290790225914928 0  0.427091205130642 0.9070553655912463 0  0.4145967731787313 0.8863870506537688 0  0.3997021496342201 0.8673754683518409 0  0.382624531648159 0.8502978503657798 0  0.363612949346231 0.8354032268212686 0  0.3429446344087536 0.822908794869358 0  0.3209209774085071 0.8129967514629171 0  0.2978631328575115 0.8058116365147896 0  0.2741073360510646 0.8014582251803892 0  0.25 0.8 0  0.2258926639489353 0.8014582251803892 0  0.2021368671424885 0.8058116365147896 0  0.1790790225914928 0.8129967514629171 0  0.1570553655912462 0.8229087948693581 0  0.1363870506537688 0.8354032268212688 0  0.117375468351841 0.8502978503657798 0  0.1002978503657797 0.867375468351841 0  0.08540322682126869 0.8863870506537689 0  0.07290879486935797 0.9070553655912463 0  0.06299675146291703 0.9290790225914929 0  0.05581163651478957 0.9521368671424885 0  0.0514582251803892 0.9758926639489355 0  0.04999999999999999 0.9999999999999999 0  0 1 0  -0 0.7000000000000001 0  0.0241073360510646 0.6985417748196108 0  0.04786313285751161 0.6941883634852104 0  0.07092097740850711 0.6870032485370829 0  0.09294463440875372 0.677091205130642 0  0.1136129493462312 0.6645967731787312 0  0.1326245316481591 0.6497021496342202 0  0.1497021496342202 0.632624531648159 0  0.1645967731787313 0.6136129493462312 0  0.177091205130642 0.5929446344087537 0  0.187003248537083 0.5709209774085071 0  0.1941883634852104 0.5478631328575115 0  0.1985417748196108 0.5241073360510646 0  0.2 0.5 0  0.1985417748196108 0.4758926639489353 0  0.1941883634852104 0.4521368671424885 0  0.1870032485370829 0.4290790225914928 0  0.177091205130642 0.4070553655912463 0  0.1645967731787313 0.3863870506537688 0  0.1497021496342202 0.3673754683518409 0  0.132624531648159 0.3502978503657798 0  0.113612949346231 0.3354032268212686 0  0.09294463440875361 0.322908794869358 0  0.07092097740850711 0.3129967514629171 0  0.04786313285751148 0.3058116365147896 0  0.02410733605106464 0.3014582251803892 0  0.6985417748196108 0.5241073360510646 0  0.7 0.5 0  0.6985417748196108 0.4758926639489353 0  0.6941883634852104 0.4521368671424885 0  0.6870032485370829 0.4290790225914928 0  0.677091205130642 0.4070553655912463 0  0.6645967731787312 0.3863870506537688 0  0.6497021496342201 0.3673754683518409 0  0.632624531648159 0.3502978503657798 0  0.613612949346231 0.3354032268212686 0  0.5929446344087537 0.322908794869358 0  0.5709209774085071 0.3129967514629171 0  0.5478631328575114 0.3058116365147896 0  0.5241073360510646 0.3014582251803892 0  0.4999999999999999 0.3 0  0.4758926639489353 0.3014582251803892 0  0.4521368671424885 0.3058116365147896 0  0.4290790225914928 0.3129967514629171 0  0.4070553655912462 0.3229087948693581 0  0.3863870506537688 0.3354032268212687 0  0.367375468351841 0.3502978503657798 0  0.3502978503657798 0.367375468351841 0  0.3354032268212687 0.3863870506537689 0  0.322908794869358 0.4070553655912464 0  0.3129967514629171 0.4290790225914929 0  0.3058116365147896 0.4521368671424885 0  0.3014582251803892 0.4758926639489354 0  0.3 0.4999999999999999 0  0.3014582251803892 0.5241073360510646 0  0.3058116365147896 0.5478631328575115 0  0.3129967514629171 0.5709209774085071 0  0.3229087948693581 0.5929446344087538 0  0.3354032268212687 0.6136129493462312 0  0.3502978503657798 0.632624531648159 0  0.367375468351841 0.6497021496342202 0  0.3863870506537689 0.6645967731787313 0  0.4070553655912463 0.677091205130642 0  0.4290790225914929 0.6870032485370829 0  0.4521368671424885 0.6941883634852104 0  0.4758926639489354 0.6985417748196108 0  0.4999999999999999 0.7 0  0.5241073360510646 0.6985417748196108 0  0.5478631328575116 0.6941883634852104 0  0.5709209774085071 0.6870032485370829 0  0.5929446344087537 0.677091205130642 0  0.6136129493462312 0.6645967731787312 0  0.6326245316481591 0.6497021496342202 0  0.6497021496342202 0.632624531648159 0  0.6645967731787312 0.6136129493462312 0  0.677091205130642 0.5929446344087537 0  0.6870032485370829 0.5709209774085071 0  0.6941883634852104 0.5478631328575115 0  0 0.15 0  1 0.15 0  1 0.85 0  0 0.8500000000000001 0  0 0.075 0  1 0.075 0  1 0.925 0  0 0.925 0  0.5 0.8127595604293815 0  0.5069440078039168 0.190422209288238 0  0.25 0.3127595604293815 0  0.756944007803917 0.3095777907117619 0  0.756944007803917 0.6904222092882382 0  0.25 0.6872404395706185 0  0 0.225 0  0.4255768646051012 0.2241073097134061 0  1 0.7749999999999999 0  0.6773391559270888 0.2766774022734219 0  1 0.225 0  0.6755768646051011 0.7241073097134062 0  0 0.7750000000000001 0  0.5818971135297744 0.2287925518358889 0  0.8318971135297746 0.728792551835889 0  0.1659156081861886 0.7301636995921477 0  0.08376842746533225 0.2299656297760495 0  0.4236002201977974 0.7746535834185855 0  0.0840843918138115 0.7698363004078523 0  0.3340843918138113 0.7301636995921477 0  0.3340843918138114 0.2698363004078523 0  0.9159156081861887 0.2301636995921477 0  0.5840843918138116 0.7698363004078522 0  0.1659156081861887 0.2698363004078523 0  0.9162315725346678 0.7700343702239506 0  0.8340843918138114 0.2698363004078523 0  0.75 0.6146645247768686 0  0.5 0.1125158665330878 0  0.75 0.3874841334669124 0  0.2504983345544904 0.6122915843562002 0  0.2504983345544902 0.3877084156437999 0  0.5 0.8879783056303169 0  0.7005361650220154 0.3333055947145943 0  0.70416808765371 0.6599554817221275 0  0.449930214263529 0.1678187287522426 0  0.2247310981387008 0.7415600637745463 0  0.5155081196221678 0.7563797802146907 0  0.2752689018612993 0.2584399362254537 0  0.05605196690611226 0.8246131191226815 0  0.9439480330938878 0.1
[...]
<PointData  Scalars="Temperature"> 
<DataArray  type="Float64"  Name="Temperature"  format="ascii">7.3813233234583123e+01  7.4547037252315761e+01  7.4545830672783197e+01  7.4529195438630580e+01  7.4482667397985310e+01  7.4410277022030016e+01  7.4313381097668369e+01  7.4192917853539882e+01  7.4049998113171597e+01  7.3882501090267468e+01  7.3685735560397887e+01  7.3462045083323204e+01  7.3218139524879987e+01  7.2959658241069022e+01  7.2692268193110948e+01  7.2422886736179620e+01  7.2152076524279749e+01  7.1878368030340241e+01  7.1606495416479717e+01  7.1334317607738981e+01  7.1075075095117541e+01  7.0838009111145908e+01  7.0633179335724478e+01  7.0474759340555096e+01  7.0361670573786910e+01  7.0292389263908234e+01  7.0254811205095578e+01  7.0239704473713147e+01  7.0236011924154070e+01  7.0184530083759924e+01  7.0169830263716307e+01  7.0124175550756348e+01  7.0038616275791810e+01  6.9905603113283078e+01  6.9713346160731973e+01  6.9461081285630584e+01  6.9152961087206492e+01  6.8799273832234675e+01  6.8415864438400661e+01  6.8025193436391746e+01  6.7650021597146818e+01  6.7309334142039489e+01  6.7014725471203207e+01  6.6769533737348226e+01  6.6570659270920515e+01  6.6414339628181125e+01  6.6289823539821427e+01  6.6191299638151989e+01  6.6113394850263731e+01  6.6050479740186177e+01  6.5999841468849212e+01  6.5958515985402826e+01  6.5925877197503581e+01  6.5901661342803422e+01  6.5886121200678744e+01  6.5880576582847709e+01  6.5880122641847123e+01  6.6091965457560093e+01  6.6099928113244772e+01  6.6122297996343846e+01  6.6154357387825812e+01  6.6187349781841675e+01  6.6209287856037122e+01  6.6204296465371684e+01  6.6155715607519852e+01  6.6050820909835593e+01  6.5883691678359028e+01  6.5642333959956119e+01  6.5340854561474856e+01  6.4992873241092539e+01  6.4620793863460065e+01  6.4249795257791035e+01  6.3900828199788748e+01  6.3577482847694256e+01  6.3283636881829544e+01  6.3008403098581880e+01  6.2747910939103804e+01  6.2503304109968767e+01  6.2271481717516160e+01  6.2063237549718508e+01  6.1886352441932253e+01  6.1752143604677279e+01  6.1669248235747062e+01  6.1640161915525596e+01  6.1002195542037633e+01  6.1003172034814412e+01  6.1017550030187294e+01  6.1057872522644487e+01  6.1120610229183676e+01  6.1204800741546642e+01  6.1309340102641208e+01  6.1434205719214731e+01  6.1581086344880042e+01  6.1750749588768400e+01  6.1944792491277113e+01  6.2159499450342146e+01  6.2386668614127629e+01  6.2623853650499505e+01  6.2860701908824225e+01  6.3102379855157174e+01  6.3346110953905487e+01  6.3591543324829161e+01  6.3834705272192345e+01  6.4070507855381507e+01  6.4282661893565162e+01  6.4467911256992281e+01  6.4609705629232806e+01  6.4712188950727750e+01  6.4773641898057235e+01  6.4804893174736563e+01  6.4818258430124757e+01  6.4821305939193948e+01  6.4868439107324363e+01  6.4883358979735277e+01  6.4927319419110702e+01  6.5006858627375536e+01  6.5131390707928873e+01  6.5312606695140559e+01  6.5548515391811108e+01  6.5838613075995980e+01  6.6168583553581868e+01  6.6527854319911441e+01  6.6891134485628456e+01  6.7236410192037667e+01  6.7550150256117860e+01  6.7814317508718460e+01  6.8030026270420947e+01  6.8196606438063597e+01  6.8322997779682240e+01  6.8417283471314960e+01  6.8488105925355001e+01  6.8541971941763848e+01  6.8583359205636924e+01  6.8615409198124453e+01  6.8641116695611586e+01  6.8660944744994154e+01  6.8675728575968876e+01  6.8684759154597543e+01  6.8688163075883963e+01  6.8688270706068479e+01  6.8573840036001215e+01  6.8569745218098006e+01  6.8559054529432046e+01  6.8546005744788545e+01  6.8537777200315475e+01  6.8545358390080281e+01  6.8582474094253016e+01  6.8663468436988467e+01  6.8803305861592690e+01  6.9008606283228715e+01  6.9285703958531940e+01  6.9627052177753470e+01  7.0019351657711923e+01  7.0435325408901434e+01  7.0851052907645268e+01  7.1245210309423499e+01  7.1608091639559632e+01  7.1940199540699808e+01  7.2251689584554811e+01  7.2547022494963954e+01  7.2828247177696468e+01  7.3090005641267041e+01  7.3327567682725402e+01  7.3530320073890749e+01  7.3682444622962464e+01  7.3779347970194280e+01  6.4294658738254654e+01  6.4655936383652147e+01  6.5042428711542613e+01  6.5435959979876486e+01  6.5825785538815182e+01  6.6210580384234859e+01  6.6598046994429524e+01  6.6997538496926254e+01  6.7416388536236184e+01  6.7846395734286546e+01  6.8284277465358599e+01  6.8724423615326742e+01  6.9151397412179435e+01  6.9560771453952455e+01  6.9948784300856502e+01  7.0312693880662749e+01  7.0648816017048745e+01  7.0956558646151706e+01  7.1227462515335020e+01  7.1453185813439418e+01  7.1614198354429945e+01  7.1702695692786563e+01  7.1704091780456395e+01  7.1613879290806196e+01  7.1425665777783593e+01  7.1151919958656819e+01  7.0803462751329477e+01  7.0401046983582489e+01  6.9973725866872229e+01  6.9543929094473540e+01  6.9127118722827163e+01  6.8715497320747104e+01  6.8314896018837572e+01  6.7914135307201391e+01  6.7504661628062564e+01  6.7089793010271748e+01  6.6666438874911904e+01  6.6252746764084065e+01  6.5848679187879384e+01  6.5467600116463174e+01  6.5107458176493324e+01  6.4771720132686141e+01  6.4460043497891562e+01  6.4179845633661543e+01  6.3931435498234933e+01  6.3727012472305489e+01  6.3579696326034671e+01  6.3497408763414860e+01  6.3493683917346715e+01  6.3574268534189947e+01  6.3740273943484858e+01  6.3985004912307865e+01  7.4193308096000408e+01  6.5993738329482056e+01  6.1308179289185631e+01  6.8621301210083615e+01  7.4438771266472017e+01  6.5916001182803726e+01  6.1095938207291809e+01  6.8667060770907028e+01  6.5010667860536032e+01  6.9976947508136888e+01  7.2226774255779034e+01  6.6621980201515498e+01  6.2981698953659127e+01  6.8209865911654688e+01  7.3943475586903375e+01  7.0756840077756394e+01  6.1525344901981782e+01  6.7535128443211605e+01  6.6062333669125152e+01  6.3450975062305247e+01  6.8585474215918865e+01  6.9028389808635538e+01  6.2350726481578143e+01  6.8393148742600587e+01  7.3720025694168442e+01  6.5880195293188351e+01  6.8535528381034041e+01  6.7196616963952508e+01  7.1676906145664617e+01  6.6140737939033812e+01  6.4264848452776292e+01  7.3022876144280232e+01  6.1720351279856125e+01  6.6368385047330790e+01  6.3392684855150023e+01  7.0134519225333719e+01  6.6054353690374754e+01  6.8852942547118872e+01  7.1794268568611983e+01  6.4919502650560744e+01  6.6864259417078728e+01  6.3332462048889269e+01  7.0445534193262887e+01  6.8106339026729657e+01  6.4904888319405018e+01  7.2157438706952576e+01  6.8586929268319366e+01  6.6049660001398351e+01  7.4027460531530551e+01  6.1466593042445524e+01  7.0164528892106972e+01  6.3047385607781976e+01  6.7053107957737808e+01  6.5428566175785221e+01  6.8495449202390347e+01  7.2562757570925058e+01  6.7867283873284421e+01  7.1854879692918047e+01  6.4569355643244876e+01  7.0189692443050404e+01  6.5405442562398520e+01  6.4041374559093711e+01  7.1216826058376000e+01  6.9716549796847758e+01  6.4844325524638606e+01  6.4865982796204818e+01  7.2598453717769587e+01  6.7725642517448406e+01  6.9514408084478958e+01  6.2979947978377830e+01  6.6313197687429408e+01  6.8277498458071150e+01  7.1194441380878516e+01  7.1346051154857221e+01  6.3793237120349986e+01  6.3930822586732354e+01  6.8127075139699656e+01  6.2685199170526808e+01  6.6650500323324351e+01  6.4717696013689292e+01  7.0210628628475504e+01  7.0505174451119686e+01  6.6527776059938574e+01  6.6617831835552693e+01  6.9612066555540125e+01  6.1992041100718950e+01  6.2029244767465052e+01  6.5353764822720478e+01  7.3460334100477908e+01  6.8568061972689307e+01  6.6189670450726965e+01  6.8440634554050760e+01  7.3334578615497918e+01  6.8504251431844466e+01  6.6096794410993709e+01  6.6272208219084220e+01  6.1658469204951139e+01  7.3790076824689564e+01  6.5986273951499442e+01  6.1264383466671859e+01  7.4244914273146620e+01  6.8624813123729623e+01  6.6134019013135998e+01  6.2687372798193785e+01  6.9856488564755011e+01  6.3207953535448155e+01  6.4228218072897050e+01  6.7322122673403285e+01  7.2957361700546286e+01  6.6130301387510031e+01  7.1605932960505243e+01  6.8507605619021021e+01  6.8533697776503203e+01  7.3812719173212272e+01  6.1661736340746494e+01  6.8744001240119161e+01  7.2148979410370373e+01  6.4822067552193758e+01  6.2436564438365501e+01  7.1946071242437938e+01  6.8369244297355735e+01  6.7557343783968918e+01  6.7502291990907722e+01  6.5960312802710831e+01  7.0628145456707756e+01  6.3588397722734420e+01  7.0900135284185623e+01  6.3433679487202355e+01  6.5161005679230755e+01  6.5749888782311615e+01  6.8953025813063292e+01  6.7026684425625959e+01  6.2380853417606573e+01  6.8823769685090497e+01  6.8254577355625742e+01  7.1742183672826343e+01  6.7276071261573463e+01  7.2946614981850729e+01  6.6262051684094445e+01  6.4317229890895177e+01  7.0332715190491527e+01  7.3922553517855306e+01  6.6447365052452156e+01  6.6077884625876578e+01  6.8574171714248877e+01  6.4725382700479742e+01  6.8600733312468648e+01  6.6031597742392933e+01  6.6489510180221998e+01  6.1416010844017109e+01  7.0333489070611449e+01  6.6464966554513438e+01  6.6373671441342552e+01  7.0164979020515887e+01  7.4062912616247900e+01  6.3622349689329219e+01  6.3580587912502608e+01  6.3148312582041846e+01  6.9270668534833348e+01  7.1757486753456533e+01  6.8509026761022795e+01  7.1740725141382057e+01  6.8544383709144199e+01  7.0241812843348058e+01  7.0083616121763356e+01  6.5719656420282647e+01  6.5882246109954039e+01  6.4714866655595117e+01  6.4819572431886201e+01  6.4997893116843571e+01  6.1422585794520799e+01  6.8576884276308803e+01  6.1195572588130013e+01  6.6082700583326300e+01  7.3851625972201788e+01  6.5889654871701850e+01  7.4518465692064154e+01  6.5953053809751509e+01  6.5939545879322097e+01  7.4324082979417483e+01  6.1026858707449612e+01  6.8682616091496001e+01  6.1605475437194031e+01  6.8645154569089271e+01  6.8652625249449628e+01  7.1498729558185204e+01  6.9193972561917406e+01  6.8285805468918440e+01  7.1941685270639937e+01  6.5122481751082958e+01  6.1827589381705430e+01  6.7729692572917529e+01  7.2541844957559732e+01  6.2790966980546713e+01  6.3257664608748023e+01  6.5280071167361541e+01  6.1553164113382621e+01  6.4552608631290028e+01  6.9763566292758384e+01  6.8512243390214778e+01  7.2138828397314214e+01  7.3327278024381741e+01  6.8601011998345314e+01  6.9841919683390088e+01  6.6738434115003130e+01  6.6363935030581629e+01  6.4672271192121414e+01  6.3398624861800776e+01  6.3474030608593118e+01  6.1153424588266695e+01  7.4372312296291739e+01  7.3593713494987668e+01  6.2723521743919569e+01  6.7903870693192715e+01  7.2499969256899291e+01  6.6263813481251518e+01  6.9434909706979582e+01  6.3383777388755654e+01  6.6136489307046602e+01  6.6778642942381936e+01  7.1045794893351697e+01  6.3675202680548146e+01  6.6151551791947895e+01  7.4479276897493932e+01  6.5908775022535181e+01  6.1061067053375105e+01  6.8674709287733364e+01  6.6336216055823556e+01  6.3848125153428590e+01  7.0477619737933239e+01  6.8596277781794299e+01  6.8606556307688408e+01  6.6031356297882212e+01  6.6019203777331441e+01  6.6853055004081668e+01  7.3994662671817039e+01  7.3879959104701541e+01  7.4111415596049341e+01  7.0661738485788916e+01  7.0583211453222916e+01  7.3631389197223314e+01  6.5301513194493708e+01  6.8522149687829355e+01  6.8464466322443826e+01  6.6218000320661744e+01  6.7232332407995045e+01  6.6856269283222161e+01  7.1182627831707165e+01  6.3801595654354344e+01  6.1357737693918658e+01  6.3442010504321864e+01  6.3174285355806589e+01  6.9208477509692031e+01  6.4827088713930365e+01  6.6228016380992997e+01  7.0223518293857708e+01  7.0186446691164321e+01  6.5060759341688225e+01  6.5245486129250608e+01  7.0869935660495742e+01  7.1059321249253671e+01  6.7294095967484225e+01  6.2199325895854408e+01  6.4887651555951365e+01  6.8216025269107618e+01  7.1899913087702274e+01  6.6906752738194839e+01  7.2759142813262542e+01  6.7577642842220101e+01  6.7981063393099248e+01  6.8286506598364639e+01  7.2047407599751764e+01  7.2322629970443799e+01  6.8075217364761244e+01  6.4409683440656977e+01  6.4562282702427638e+01  7.2024242925518053e+01  6.8427974526991463e+01  7.1765844313231725e+01  7.2674617471605799e+01  6.7737623243013331e+01  6.8654291184813587e+01  6.4782608704589990e+01  6.4373100224767256e+01  6.4433816939087009e+01  7.0189670262411568e+01  7.0113065363233247e+01  7.3230790104840835e+01  6.3278072691845843e+01  6.3170622758574574e+01  6.3016767465851508e+01  7.0950782675525360e+01  6.3654380803922450e+01  6.4983795986542830e+01  7.0912878942182857e+01  6.5402649364295186e+01  6.5601722926702934e+01  6.6752166176790951e+01  7.0139951980387423e+01  7.0065273222036282e+01  6.7262092414954111e+01  6.7846132162796792e+01  6.1582213796100838e+01  7.3578097843130507e+01  6.6155500214581579e+01  6.9595454674800493e+01  6.2052123586155879e+01  6.1841297873296831e+01  6.6448505865074111e+01  6.6353000271158734e+01  6.6337305872002958e+01  6.8351687586852066e+01  7.1353173615755537e+01  7.1488666721532823e+01  6.3971062108401355e+01  6.4061403690682269e+01  6.6331409864219196e+01  6.9161000087887444e+01  7.0020031099503143e+01  6.8673434885869995e+01  6.6204517076510356e+01  6.3635639888091625e+01  6.6101763554705641e+01  6.8560463050659436e+01  6.9383511248439106e+01  6.1002689789347968e+01  6.5880335933940614e+01  7.4546529813638926e+01  6.8688254410635324e+01  7.0218298687417914e+01  6.8506697768917618e+01  7.1449399344078600e+01  6.5692762433401256e+01  6.3586232590162666e+01  6.6238219852953051e+01  7.0139746673865915e+01  7.0236183891862055e+01  7.1541405211031574e+01  6.6611605012348704e+01  6.2232678953471563e+01  6.2089722095077349e+01  6.1892015826176888e+01  6.2203615593203779e+01  6.4084676106841385e+01  7.1508834964166454e+01  6.9009339459006370e+01  6.4848699912498986e+01  6.4828265681603611e+01  6.4893763376917562e+01  6.3953725421774202e+01  6.3921192314708740e+01  6.9705307092263524e+01  6.9589602054357698e+01  7.3147884783826626e+01  7.1757064606860880e+01  6.6248675757236143e+01  7.3536651301555068e+01  6.8392981483345395e+01  6.6901418136736453e+01  6.5760821439352711e+01  7.3887947940863057e+01  7.0490640775213080e+01  6.3007870934045378e+01  6.2953824795168572e+01  6.1527540387046997e+01  6.8186137545108650e+01  7.2834749267084661e+01  6.7465745902704981e+01  6.8379814175194866e+01  6.8456809989892093e+01  6.8494910358252014e+01  7.0646380191950229e+01  6.4847590903417597e+01  7.4126518971828219e+01  6.1799941098857673e+01  7.1425240977451651e+01  6.7883599275727917e+01  6.8589516503363186e+01  6.6046497599225845e+01  6.3200574285437085e+01  6.7198332126712472e+01  7.1690268840718360e+01  6.4378391363593536e+01  7.2412921207249141e+01  6.5407089447699946e+01  6.1579758123466952e+01  6.8532143774465084e+01  6.7896952999757062e+01  7.1209982984542165e+01  6.6174197519309104e+01  7.0164382824999251e+01  6.5890259162837140e+01  6.8684183386726730e+01  7.4526716127329763e+01  6.1019533693078309e+01  6.7899714400734879e+01  6.6237161400948068e+01  6.1991428835238203e+01  6.6343284657942249e+01  6.8471768194711714e+01  6.7832950405646685e+01  6.6138106388097654e+01  6.4143766747262504e+01  7.3700226096435557e+01  6.8555547525050315e+01  6.8524852920650986e+01  6.8115510305399781e+01  6.6492663032698445e+01  6.6588778080557702e+01  6.7007985756355481e+01  6.8565246250181076e+01  6.6107122975843907e+01  6.8578663232095124e+01  6.5920331243952660e+01  6.9728571750992373e+01  7.2289460784021585e+01  6.8912568481437788e+01  6.2559324797181603e+01  7.2361905943420695e+01  6.4979426592597164e+01  6.2483688289858939e+01  6.2860607919172089e+01  6.2847673967238606e+01  6.6905241696958271e+01  6.4944848033249173e+01  6.1645350651156591e+01  7.0015041215468685e+01  7.2785751421294066e+01  6.7415220092262174e+01  6.5032359355942617e+01  6.3502503708767634e+01  6.8802007901522074e+01  6.8499479460745818e+01  6.1472524816873182e+01  7.2119624586849810e+01  6.8094453686580579e+01  7.0192586467711394e+01  6.4860995134020357e+01  7.0228589746158463e+01  6.9904008579914660e+01  7.3086745037917623e+01  6.6085574825594634e+01  6.8568700111147791e+01  6.8551504128295235e+01  6.6108963758438506e+01  6.6074099649835858e+01  6.6073771033819412e+01  6.1532957593501280e+01  7.4020452090908393e+01  6.8580828295854943e+01  7.2010953399259350e+01  6.4816106978414780e+01  6.9889571745762794e+01  6.9310830083900711e+01  6.8261201397192565e+01  7.0454421996576556e+01  7.1708519420344416e+01  7.2402994012495910e+01  6.6210108951161985e+01  6.8636526530262515e+01  6.5978174083316887e+01  6.2274815041965482e+01  6.8563355377718906e+01  6.5574300701000183e+01  7.3440914449910082e+01  6.6172451100578286e+01  7.3195385649934380e+01  7.3370395552130020e+01  6.1735322738428344e+01  6.1643842854385525e+01  7.3808054782989657e+01  7.3820662907150336e+01  7.1225949850642948e+01  6.5688212744949197e+01  6.5635569523251448e+01  6.6025910974552573e+01  6.5652712562007039e+01  6.5142266455816397e+01  6.6853798034829254e+01  6.1399445731411518e+01  6.4690890551451403e+01  6.6219233885152889e+01  7.1838784829765430e+01  7.0901969763114195e+01  6.6242402164840698e+01  6.5056739148656263e+01  6.4761587882542912e+01  6.5462581191923292e+01  6.3252442584071090e+01  7.1600823820993782e+01  7.0315345358923651e+01  6.8588329741025262e+01  6.8843675774873191e+01  6.8732061895519564e+01  7.1999111721817854e+01  6.1250817737877988e+01  7.4259631441751566e+01  7.4200908179706417e+01  7.4206893598834242e+01  6.1321635383576663e+01  6.1208906604940601e+01  6.2376190751800436e+01  6.8137065589176643e+01  6.2626603379862800e+01  6.9365047184326826e+01  6.3424261822995994e+01  6.6017634515785545e+01  6.5992952887883902e+01  6.8607477858486035e+01  6.8632939670451591e+01  6.8621854313892385e+01  6.4809580983546752e+01  7.4309498890432096e+01  6.8640450087272299e+01  6.5960667769377793e+01  6.1803626600604062e+01  6.9712792758449766e+01  6.5115973540445424e+01  6.9193933729708405e+01  7.1961234317606412e+01  6.8601202216551599e+01  6.6089087481616573e+01  6.8574491293651491e+01  6.4118105698047742e+01  6.2819632133909238e+01  6.2833400896138706e+01  6.2489290740180252e+01  7.2706073931181578e+01  6.4963880255912855e+01  7.3752356725798862e+01  6.2623679047527190e+01  6.8509876489520337e+01  6.6157045596577291e+01  6.9002039630165669e+01  6.9675000969528270e+01  6.1285587010384717e+01  6.5256869894713219e+01  7.3735187669534724e+01  6.2963569858296410e+01  6.5882267434210974e+01  6.3758535399076649e+01  7.1556096123502584e+01  6.7553497439245845e+01  6.4754805662566596e+01  6.5174072219359203e+01  6.4530514900067459e+01  6.6019592390946769e+01  7.2777047055093874e+01  7.0541876343045843e+01  6.7074266159217487e+01  6.6403996511368163e+01  6.6224372181208238e+01  6.6592565289602547e+01  6.6635342475304782e+01  6.4911827698537778e+01  6.8256465714285056e+01  6.8538204321972543e+01  6.7225040961883494e+01  6.6089898339507698e+01  6.8573155232919660e+01  6.6170631657163753e+01  7.2097343930658454e+01  6.8330159726117429e+01  7.0240358977837545e+01  7.0200042029041043e+01  7.0397905938957351e+01  6.6480057500543779e+01  6.5971053017365236e+01  6.3294808439218571e+01  6.3299100953930726e+01  6.3142245010687766e+01  6.7121138744682995e+01  6.1630704919118962e+01  6.6084650482762811e+01  6.7633420595956068e+01  7.3765700694603765e+01  7.3931892816660991e+01  7.3147928872128006e+01  6.7531679541579621e+01  6.7575825495205237e+01  6.7304370694113686e+01  6.6051171719078766e+01  6.4190033712134991e+01  7.2883717190825152e+01  7.1556977812564313e+01  6.1662458567571484e+01  7.0394262928723180e+01  7.0695362362219043e+01  6.6292787605860340e+01  7.2669910426863964e+01  6.3668805359425868e+01  7.0784634150712179e+01  6.3537839585096563e+01  7.0839522299052106e+01  6.5860436530145265e+01  6.6072933005489247e+01  6.4400055881111996e+01  7.1738470720507820e+01  6.4312527306714472e+01  6.3457401177385442e+01  6.6428081456198328e+01  6.6118937336518627e+01  7.1741282549302241e+01  6.5009774345675453e+01  6.7560001866400697e+01  7.0054357739637538e+01  6.7552417374005358e+01  6.4422423322023022e+01  7.0719943865650691e+01  6.1208988828649858e+01  7.4285689669705235e+01  7.040