<?xml version="1.0"?>
<VTKFile type="UnstructuredGrid"  version="0.1"  >
<UnstructuredGrid>
<Piece  NumberOfPoints="2331" NumberOfCells="4248">
<Points>
<DataArray  type="Float64"  NumberOfComponents="3"  format="ascii">0 0.3 0  0 0 0  0.04999999999999999 0 0  0.0514582251803892 0.02410733605106462 0  0.0558116365147896 0.04786313285751154 0  0.06299675146291706 0.07092097740850717 0  0.07290879486935808 0.09294463440875382 0  0.08540322682126872 0.1136129493462312 0  0.1002978503657798 0.132624531648159 0  0.117375468351841 0.1497021496342203 0  0.1363870506537689 0.1645967731787313 0  0.1570553655912463 0.177091205130642 0  0.1790790225914929 0.187003248537083 0  0.2021368671424885 0.1941883634852104 0  0.2258926639489354 0.1985417748196108 0  0.25 0.2 0  0.2741073360510646 0.1985417748196108 0  0.2978631328575116 0.1941883634852104 0  0.3209209774085071 0.187003248537083 0  0.3429446344087537 0.177091205130642 0  0.3636129493462312 0.1645967731787313 0  0.3826245316481591 0.1497021496342202 0  0.3997021496342202 0.132624531648159 0  0.4145967731787313 0.1136129493462312 0  0.427091205130642 0.09294463440875371 0  0.4370032485370829 0.07092097740850713 0  0.4441883634852104 0.04786313285751155 0  0.4485417748196108 0.02410733605106461 0  0.45 0 0  0.55 0 0  0.5514582251803892 0.02410733605106462 0  0.5558116365147896 0.04786313285751154 0  0.5629967514629171 0.07092097740850717 0  0.5729087948693581 0.09294463440875382 0  0.5854032268212688 0.1136129493462312 0  0.6002978503657798 0.132624531648159 0  0.617375468351841 0.1497021496342203 0  0.6363870506537689 0.1645967731787313 0  0.6570553655912463 0.177091205130642 0  0.6790790225914929 0.187003248537083 0  0.7021368671424885 0.1941883634852104 0  0.7258926639489354 0.1985417748196108 0  0.75 0.2 0  0.7741073360510646 0.1985417748196108 0  0.7978631328575116 0.1941883634852104 0  0.8209209774085071 0.187003248537083 0  0.8429446344087537 0.177091205130642 0  0.8636129493462312 0.1645967731787313 0  0.8826245316481591 0.1497021496342202 0  0.8997021496342202 0.132624531648159 0  0.9145967731787312 0.1136129493462312 0  0.927091205130642 0.09294463440875371 0  0.9370032485370829 0.07092097740850713 0  0.9441883634852104 0.04786313285751155 0  0.9485417748196108 0.02410733605106461 0  0.95 0 0  1 0 0  1 0.3 0  0.9758926639489353 0.3014582251803892 0  0.9521368671424885 0.3058116365147896 0  0.9290790225914928 0.3129967514629171 0  0.9070553655912461 0.3229087948693581 0  0.8863870506537688 0.3354032268212687 0  0.867375468351841 0.3502978503657798 0  0.8502978503657798 0.367375468351841 0  0.8354032268212687 0.3863870506537689 0  0.822908794869358 0.4070553655912464 0  0.8129967514629171 0.4290790225914929 0  0.8058116365147896 0.4521368671424885 0  0.8014582251803892 0.4758926639489354 0  0.8 0.4999999999999999 0  0.8014582251803892 0.5241073360510646 0  0.8058116365147896 0.5478631328575115 0  0.8129967514629171 0.5709209774085071 0  0.8229087948693581 0.5929446344087538 0  0.8354032268212688 0.6136129493462312 0  0.8502978503657798 0.632624531648159 0  0.867375468351841 0.6497021496342202 0  0.8863870506537689 0.6645967731787313 0  0.9070553655912463 0.677091205130642 0  0.9290790225914929 0.6870032485370829 0  0.9521368671424885 0.6941883634852104 0  0.9758926639489354 0.6985417748196108 0  1 0.7 0  1 1 0  0.95 1 0  0.9485417748196108 0.9758926639489353 0  0.9441883634852104 0.9521368671424885 0  0.9370032485370829 0.9290790225914928 0  0.927091205130642 0.9070553655912463 0  0.9145967731787312 0.8863870506537688 0  0.8997021496342201 0.8673754683518409 0  0.882624531648159 0.8502978503657798 0  0.863612949346231 0.8354032268212686 0  0.8429446344087537 0.822908794869358 0  0.8209209774085071 0.8129967514629171 0  0.7978631328575114 0.8058116365147896 0  0.7741073360510646 0.8014582251803892 0  0.75 0.8 0  0.7258926639489353 0.8014582251803892 0  0.7021368671424885 0.8058116365147896 0  0.6790790225914928 0.8129967514629171 0  0.6570553655912461 0.8229087948693581 0  0.6363870506537688 0.8354032268212688 0  0.617375468351841 0.8502978503657798 0  0.6002978503657798 0.867375468351841 0  0.5854032268212687 0.8863870506537689 0  0.572908794869358 0.9070553655912463 0  0.5629967514629171 0.9290790225914929 0  0.5558116365147896 0.9521368671424885 0  0.5514582251803892 0.9758926639489355 0  0.55 0.9999999999999999 0  0.45 0.9999999999999999 0  0.4485417748196108 0.9758926639489353 0  0.4441883634852104 0.9521368671424885 0  0.4370032485370829 0.9290790225914928 0  0.427091205130642 0.9070553655912463 0  0.4145967731787313 0.8863870506537688 0  0.3997021496342201 0.8673754683518409 0  0.382624531648159 0.8502978503657798 0  0.363612949346231 0.8354032268212686 0  0.3429446344087536 0.822908794869358 0  0.3209209774085071 0.8129967514629171 0  0.2978631328575115 0.8058116365147896 0  0.2741073360510646 0.8014582251803892 0  0.25 0.8 0  0.2258926639489353 0.8014582251803892 0  0.2021368671424885 0.8058116365147896 0  0.1790790225914928 0.8129967514629171 0  0.1570553655912462 0.8229087948693581 0  0.1363870506537688 0.8354032268212688 0  0.117375468351841 0.8502978503657798 0  0.1002978503657797 0.867375468351841 0  0.08540322682126869 0.8863870506537689 0  0.07290879486935797 0.9070553655912463 0  0.06299675146291703 0.9290790225914929 0  0.05581163651478957 0.9521368671424885 0  0.0514582251803892 0.9758926639489355 0  0.04999999999999999 0.9999999999999999 0  0 1 0  -0 0.7000000000000001 0  0.0241073360510646 0.6985417748196108 0  0.04786313285751161 0.6941883634852104 0  0.07092097740850711 0.6870032485370829 0  0.09294463440875372 0.677091205130642 0  0.1136129493462312 0.6645967731787312 0  0.1326245316481591 0.6497021496342202 0  0.1497021496342202 0.632624531648159 0  0.1645967731787313 0.6136129493462312 0  0.177091205130642 0.5929446344087537 0  0.187003248537083 0.5709209774085071 0  0.1941883634852104 0.5478631328575115 0  0.1985417748196108 0.5241073360510646 0  0.2 0.5 0  0.1985417748196108 0.4758926639489353 0  0.1941883634852104 0.4521368671424885 0  0.1870032485370829 0.4290790225914928 0  0.177091205130642 0.4070553655912463 0  0.1645967731787313 0.3863870506537688 0  0.1497021496342202 0.3673754683518409 0  0.132624531648159 0.3502978503657798 0  0.113612949346231 0.3354032268212686 0  0.09294463440875361 0.322908794869358 0  0.07092097740850711 0.3129967514629171 0  0.04786313285751148 0.3058116365147896 0  0.02410733605106464 0.3014582251803892 0  0.6985417748196108 0.5241073360510646 0  0.7 0.5 0  0.6985417748196108 0.4758926639489353 0  0.6941883634852104 0.4521368671424885 0  0.6870032485370829 0.4290790225914928 0  0.677091205130642 0.4070553655912463 0  0.6645967731787312 0.3863870506537688 0  0.6497021496342201 0.3673754683518409 0  0.632624531648159 0.3502978503657798 0  0.613612949346231 0.3354032268212686 0  0.5929446344087537 0.322908794869358 0  0.5709209774085071 0.3129967514629171 0  0.5478631328575114 0.3058116365147896 0  0.5241073360510646 0.3014582251803892 0  0.4999999999999999 0.3 0  0.4758926639489353 0.3014582251803892 0  0.4521368671424885 0.3058116365147896 0  0.4290790225914928 0.3129967514629171 0  0.4070553655912462 0.3229087948693581 0  0.3863870506537688 0.3354032268212687 0  0.367375468351841 0.3502978503657798 0  0.3502978503657798 0.367375468351841 0  0.3354032268212687 0.3863870506537689 0  0.322908794869358 0.4070553655912464 0  0.3129967514629171 0.4290790225914929 0  0.3058116365147896 0.4521368671424885 0  0.3014582251803892 0.4758926639489354 0  0.3 0.4999999999999999 0  0.3014582251803892 0.5241073360510646 0  0.3058116365147896 0.5478631328575115 0  0.3129967514629171 0.5709209774085071 0  0.3229087948693581 0.5929446344087538 0  0.3354032268212687 0.6136129493462312 0  0.3502978503657798 0.632624531648159 0  0.367375468351841 0.6497021496342202 0  0.3863870506537689 0.6645967731787313 0  0.4070553655912463 0.677091205130642 0  0.4290790225914929 0.6870032485370829 0  0.4521368671424885 0.6941883634852104 0  0.4758926639489354 0.6985417748196108 0  0.4999999999999999 0.7 0  0.5241073360510646 0.6985417748196108 0  0.5478631328575116 0.6941883634852104 0  0.5709209774085071 0.6870032485370829 0  0.5929446344087537 0.677091205130642 0  0.6136129493462312 0.6645967731787312 0  0.6326245316481591 0.6497021496342202 0  0.6497021496342202 0.632624531648159 0  0.6645967731787312 0.6136129493462312 0  0.677091205130642 0.5929446344087537 0  0.6870032485370829 0.5709209774085071 0  0.6941883634852104 0.5478631328575115 0  0 0.15 0  1 0.15 0  1 0.85 0  0 0.8500000000000001 0  0 0.075 0  1 0.075 0  1 0.925 0  0 0.925 0  0.5 0.8127595604293815 0  0.5069440078039168 0.190422209288238 0  0.25 0.3127595604293815 0  0.756944007803917 0.3095777907117619 0  0.756944007803917 0.6904222092882382 0  0.25 0.6872404395706185 0  0 0.225 0  0.4255768646051012 0.2241073097134061 0  1 0.7749999999999999 0  0.6773391559270888 0.2766774022734219 0  1 0.225 0  0.6755768646051011 0.7241073097134062 0  0 0.7750000000000001 0  0.5818971135297744 0.2287925518358889 0  0.8318971135297746 0.728792551835889 0  0.1659156081861886 0.7301636995921477 0  0.08376842746533225 0.2299656297760495 0  0.4236002201977974 0.7746535834185855 0  0.0840843918138115 0.7698363004078523 0  0.3340843918138113 0.7301636995921477 0  0.3340843918138114 0.2698363004078523 0  0.9159156081861887 0.2301636995921477 0  0.5840843918138116 0.7698363004078522 0  0.1659156081861887 0.2698363004078523 0  0.9162315725346678 0.7700343702239506 0  0.8340843918138114 0.2698363004078523 0  0.75 0.6146645247768686 0  0.5 0.1125158665330878 0  0.75 0.3874841334669124 0  0.2504983345544904 0.6122915843562002 0  0.2504983345544902 0.3877084156437999 0  0.5 0.8879783056303169 0  0.7005361650220154 0.3333055947145943 0  0.70416808765371 0.6599554817221275 0  0.449930214263529 0.1678187287522426 0  0.2247310981387008 0.7415600637745463 0  0.5155081196221678 0.7563797802146907 0  0.2752689018612993 0.2584399362254537 0  0.05605196690611226 0.8246131191226815 0  0.9439480330938878 0.1
[...]
<PointData  Scalars="Temperature"> 
<DataArray  type="Float64"  Name="Temperature"  format="ascii">8.0526770210795817e+01  8.2102476386226797e+01  8.2099876638666615e+01  8.2064039370681357e+01  8.1963813193506198e+01  8.1807904460913832e+01  8.1599268548234733e+01  8.1339950252141847e+01  8.1032324283073294e+01  8.0671742885452943e+01  8.0247913431888733e+01  7.9765440803783051e+01  7.9238079893197934e+01  7.8677140779846525e+01  7.8093494554721232e+01  7.7501357728325118e+01  7.6901757857713605e+01  7.6291877426717633e+01  7.5683361886114497e+01  7.5073051903791580e+01  7.4491291515054073e+01  7.3958916909139319e+01  7.3498343927784560e+01  7.3140525437819875e+01  7.2883070753201565e+01  7.2722609100048388e+01  7.2633310288746316e+01  7.2595478118154475e+01  7.2585779548152004e+01  7.2474229655629927e+01  7.2444186857605189e+01  7.2350306886461922e+01  7.2172916754613325e+01  7.1895234448509967e+01  7.1491647435401291e+01  7.0960275468962806e+01  7.0310220519982209e+01  6.9563171472691295e+01  6.8752519441215895e+01  6.7924921684755745e+01  6.7126881799944442e+01  6.6396889400521175e+01  6.5757418058972064e+01  6.5214914497733275e+01  6.4764109114787246e+01  6.4399137869127813e+01  6.4099434931895942e+01  6.3855634365421338e+01  6.3658483531390537e+01  6.3496466045416035e+01  6.3364387660038716e+01  6.3255641756963684e+01  6.3169241070592463e+01  6.3104963838808196e+01  6.3063663008111845e+01  6.3048920452621473e+01  6.3047720962887617e+01  6.3632822142592190e+01  6.3655736287114152e+01  6.3720957249223005e+01  6.3818088929327125e+01  6.3927420219136039e+01  6.4022769304869527e+01  6.4069907570201337e+01  6.4034935354631216e+01  6.3890970503757458e+01  6.3626477349023141e+01  6.3219655460946584e+01  6.2699127251899405e+01  6.2092039226648829e+01  6.1441197910834866e+01  6.0793064855444499e+01  6.0183810224323615e+01  5.9618323162884927e+01  5.9101802658335266e+01  5.8613015036783132e+01  5.8144792133579571e+01  5.7700414346489460e+01  5.7275288092028184e+01  5.6890980580890613e+01  5.6563142613244771e+01  5.6313775485925177e+01  5.6159537164811738e+01  5.6105380975540605e+01  5.4920119460150325e+01  5.4921938881081267e+01  5.4948700868452171e+01  5.5023767204514357e+01  5.5140613187323318e+01  5.5297526384496429e+01  5.5492624315848353e+01  5.5726083228458499e+01  5.6001330178417597e+01  5.6320259120309949e+01  5.6686517933964858e+01  5.7094236241055256e+01  5.7529063312552395e+01  5.7987869429468034e+01  5.8452058084395482e+01  5.8932303073631729e+01  5.9422572603165634e+01  5.9920930793766473e+01  6.0417748159943983e+01  6.0900862051817370e+01  6.1336226626213296e+01  6.1716827908483083e+01  6.2008882306489170e+01  6.2220764610085368e+01  6.2348914359981755e+01  6.2415174366026015e+01  6.2444140033348269e+01  6.2450958949145168e+01  6.2545984802796362e+01  6.2575285052593877e+01  6.2661770615250219e+01  6.2818821822140229e+01  6.3065481589503214e+01  6.3425439449702743e+01  6.3894755378934818e+01  6.4472347928413356e+01  6.5129533571183543e+01  6.5844862049961989e+01  6.6567758898781278e+01  6.7254145043950288e+01  6.7876974491799558e+01  6.8400402563203571e+01  6.8826644220088212e+01  6.9154468399371098e+01  6.9401953835259050e+01  6.9585347468229202e+01  6.9722042487587672e+01  6.9825216563574884e+01  6.9903865550620580e+01  6.9964295781793652e+01  7.0012474442070442e+01  7.0049442902733517e+01  7.0076921357655920e+01  7.0093677810459752e+01  7.0099989352693555e+01  7.0100190624108819e+01  6.9891018350833264e+01  6.9883500158265690e+01  6.9864020140075795e+01  6.9840791693991747e+01  6.9827839194038972e+01  6.9846622493334721e+01  6.9924113214873401e+01  7.0088525002343317e+01  7.0369352173469352e+01  7.0779541755972701e+01  7.1331547852945107e+01  7.2010162693084737e+01  7.2789020332955630e+01  7.3614093080264652e+01  7.4438621667958998e+01  7.5221585234523772e+01  7.5945547746928753e+01  7.6613566967190124e+01  7.7247341964015391e+01  7.7855275537929487e+01  7.8440736879482500e+01  7.8990629525764035e+01  7.9492937465404353e+01  7.9923572488714356e+01  8.0247637350138447e+01  8.0454412981195659e+01  6.0883567612905779e+01  6.1514773009770771e+01  6.2199065130629556e+01  6.2906417153029139e+01  6.3620147522598820e+01  6.4341916331356899e+01  6.5088551215247378e+01  6.5877305561835499e+01  6.6722350075862607e+01  6.7603908536768571e+01  6.8513202960985453e+01  6.9436269137419458e+01  7.0339514871400567e+01  7.1212846070305972e+01  7.2047455499538401e+01  7.2837854542353824e+01  7.3575308800706722e+01  7.4258150524910178e+01  7.4866811856331722e+01  7.5383123820846407e+01  7.5763955759285253e+01  7.5993068316340427e+01  7.6039350082692565e+01  7.5893398210235944e+01  7.5543842593872327e+01  7.5016477045508068e+01  7.4334915414813281e+01  7.3542051795815752e+01  7.2696867673738950e+01  7.1844880397606858e+01  7.1017352328277568e+01  7.0199303971972299e+01  6.9402567255390608e+01  6.8605080090273916e+01  6.7789757631616396e+01  6.6963065576900874e+01  6.6118561189856393e+01  6.5292139433993256e+01  6.4483204176984160e+01  6.3718081657655780e+01  6.2992304473187048e+01  6.2312304304462820e+01  6.1677167511001350e+01  6.1101269177607904e+01  6.0584602616005796e+01  6.0151452297392410e+01  5.9826235624842376e+01  5.9624632457576510e+01  5.9570901001148556e+01  5.9675391303886400e+01  5.9939606587706386e+01  6.0350599379490781e+01  8.1341134797017688e+01  6.3352221846616899e+01  5.5489516933270792e+01  6.9976242821396710e+01  8.1869279402539547e+01  6.3143290777461239e+01  5.5094587490665965e+01  7.0060885386176324e+01  6.2810336470644032e+01  7.2079522950159358e+01  7.7128791196168720e+01  6.5012514333281629e+01  5.8628188937029904e+01  6.9190217676746158e+01  8.0805162203413602e+01  7.3795803635527946e+01  5.5892765212916942e+01  6.6923090080769668e+01  6.3544079889537059e+01  5.9605312265390808e+01  6.9911140449642190e+01  7.0061872094922364e+01  5.7439941972843542e+01  6.9544931463030991e+01  8.0325353958854379e+01  6.4551083827745586e+01  6.9816185363886206e+01  6.7175966263945782e+01  7.5863598485313204e+01  6.3749035171950283e+01  6.1288944284280930e+01  7.8831763284955187e+01  5.6258213582870532e+01  6.4351535712641819e+01  5.9324582235044964e+01  7.2390145100945645e+01  6.3994413284372378e+01  7.0471593082410834e+01  7.6288355693957911e+01  6.2638970206133131e+01  6.5575513886456662e+01  5.9292937920177323e+01  7.3090861912203323e+01  6.8980135570738000e+01  6.2587620648571452e+01  7.6930965400632260e+01  6.9911763030374914e+01  6.3500150727765536e+01  8.0984498598722141e+01  5.5784699233888780e+01  7.2504935234244840e+01  5.8803686099037755e+01  6.5872125320183670e+01  6.3652491587007425e+01  6.9754560135658124e+01  7.7869778464001300e+01  6.8511183973269155e+01  7.6308429770418016e+01  6.1918901533590095e+01  7.2492126598171254e+01  6.2832154037457300e+01  6.0436991653546222e+01  7.5155323869864233e+01  7.2187768201267687e+01  6.2497472333654379e+01  6.2538284795551370e+01  7.7907843772363734e+01  6.8227123920524093e+01  7.1081440647952462e+01  5.8580177595028168e+01  6.4335305735113479e+01  6.8470367163628836e+01  7.4780932592933212e+01  7.5106512775356194e+01  6.0324696868578904e+01  6.0593580272499686e+01  6.8173860071691180e+01  5.8085929134127944e+01  6.4977335205471803e+01  6.1616948116732772e+01  7.2530670719365702e+01  7.3750224237318875e+01  6.5844119086087730e+01  6.6022421598730844e+01  7.1309086185539556e+01  5.6771116218856925e+01  5.6832367738057428e+01  6.3495391502770246e+01  7.9772353907571798e+01  6.9879346568499699e+01  6.3902836360699766e+01  6.9632785941607196e+01  7.9493929220725121e+01  6.9760169978296929e+01  6.3641833286479596e+01  6.4074462956001483e+01  5.6140323123479526e+01  8.0476936983058280e+01  6.3330330640503568e+01  5.5408355856170019e+01  8.1451985664114815e+01  6.9982312540339151e+01  6.4074131175381808e+01  5.8062046549652571e+01  7.1799239833663520e+01  5.9092607008594889e+01  6.1221383242212674e+01  6.7426139983765751e+01  7.8705610853858886e+01  6.3707462270194135e+01  7.5725992630661651e+01  6.9773697240067619e+01  6.9810388076436567e+01  8.0522393316531819e+01  5.6151408863749616e+01  7.0252618136310616e+01  7.7023590522471480e+01  6.2436006814714652e+01  5.7585259159965972e+01  7.6554578827967916e+01  6.9509478402710997e+01  6.6941818774222497e+01  6.6883643062088879e+01  6.4713684606562921e+01  7.3523492181174078e+01  5.9866149178708476e+01  7.4103562260335750e+01  5.9592009524842055e+01  6.3121783905645657e+01  6.4287028176897863e+01  6.9913637824852543e+01  6.5861584030336843e+01  5.7511076086446955e+01  6.9619453399850769e+01  6.9269974338902045e+01  7.5993407886290143e+01  6.7333426077958066e+01  7.8654913662912762e+01  6.4150684339724066e+01  6.1388258492111866e+01  7.2857979074275363e+01  8.0759977144278537e+01  6.4494420026010943e+01  6.3582069025683595e+01  6.9889177086462595e+01  6.2229941214143629e+01  6.9938596728979519e+01  6.3456553776075843e+01  6.4666309394305145e+01  5.5691431231050494e+01  7.2828879623803815e+01  6.4759483345748606e+01  6.4633619738945214e+01  7.2471819473343999e+01  8.1061123510765356e+01  5.9705041988293829e+01  5.9666473524061587e+01  5.8907905858044806e+01  7.1302032725977213e+01  7.6237421412244132e+01  6.9788514918156423e+01  7.6137493934758098e+01  6.9835881156849425e+01  7.2613718985295634e+01  7.2271128337434405e+01  6.3370684565149347e+01  6.3710090477669866e+01  6.2223214763638488e+01  6.2441221448354000e+01  6.2799305858888204e+01  5.5702132243706899e+01  6.9896182318895384e+01  5.5280028077511069e+01  6.3604696031826656e+01  8.0608750355945261e+01  6.3073092967654624e+01  8.2040925463894169e+01  6.3242372237998694e+01  6.3205835656410351e+01  8.1622390343507519e+01  5.4966018137038120e+01  7.0089712643454490e+01  5.6041190122729489e+01  7.0020307847854980e+01  7.0034040572315888e+01  7.5695792318043345e+01  7.1150095651694173e+01  6.9338058268597024e+01  7.6469153907063173e+01  6.3040271862748639e+01  5.6455204358344176e+01  6.8233591012708672e+01  7.7768992223449843e+01  5.8307523670671301e+01  5.9064213116320282e+01  6.3342451970517914e+01  5.5945010357551816e+01  6.1873458815222804e+01  7.1643745036137233e+01  6.9792294186854647e+01  7.6976490013224108e+01  7.9484083378887362e+01  6.9163854418235061e+01  7.1778702083325399e+01  6.5207955592391571e+01  6.4513529387889108e+01  6.2112285262058450e+01  5.9470855590514923e+01  5.9597910142209969e+01  5.5201650015574131e+01  8.1726176808240439e+01  8.0052348761511851e+01  5.8107396183807943e+01  6.8582739246681456e+01  7.7716193233721626e+01  6.4081953293277607e+01  7.0921894774679998e+01  5.9341562244347564e+01  6.3750877454985762e+01  6.5432684638432193e+01  7.4435774370335821e+01  6.0064863258833448e+01  6.5091696448877954e+01  8.1956511392434450e+01  6.3123945376588743e+01  5.5029696829944811e+01  7.0075045273846754e+01  6.5463063541198935e+01  6.0112504994130553e+01  7.3184671254551390e+01  6.9928578758976769e+01  6.9948910033960971e+01  6.3448267139313757e+01  6.3420936340559763e+01  6.6492014342493519e+01  8.0913452810878454e+01  8.0667893101045820e+01  8.1165128039399505e+01  7.3566682226408574e+01  7.3403813613563301e+01  8.0138289268887661e+01  6.3394772566342674e+01  6.9798541604671627e+01  6.9677183746773665e+01  6.3927283733005609e+01  6.6312816720261907e+01  6.5418176443820357e+01  7.4734892479900282e+01  6.0315798094309415e+01  5.5582069512748738e+01  5.9487603036458168e+01  5.8994032047593926e+01  7.0430121259073147e+01  6.2461051067625291e+01  6.4140859027296770e+01  7.2560468855161687e+01  7.2480164562164404e+01  6.2215417649605804e+01  6.2557916633001071e+01  7.4468026010160600e+01  7.4849853659268646e+01  6.6400296182179375e+01  5.7144767896121039e+01  6.2583049400227758e+01  6.8332436314786420e+01  7.6356652106139393e+01  6.6598286099237328e+01  7.8273021636297571e+01  6.7934343891990537e+01  6.8730767688412584e+01  6.9336312909303047e+01  7.6673576022486017e+01  7.7310938830492120e+01  6.8920837644581269e+01  6.1589537482668817e+01  6.1909048018802238e+01  7.6687624024608994e+01  6.9617279437168563e+01  7.6141593869216763e+01  7.8115705132789159e+01  6.8253592417704809e+01  7.0071493076961659e+01  6.2351002244686931e+01  6.1016992241319784e+01  6.1116347863718914e+01  7.3124805155982358e+01  7.2974516765499715e+01  7.9285917531680354e+01  5.9265049314283772e+01  5.9063262205789478e+01  5.8721767370035522e+01  7.4241171248078757e+01  6.0046230322965741e+01  6.2751354076438489e+01  7.4149449403219293e+01  6.3603500603677709e+01  6.3996046021558968e+01  6.5318117620168607e+01  7.2459048725010362e+01  7.2280437009882206e+01  6.6303269208772065e+01  6.7562604953433151e+01  5.6000302659397818e+01  8.0016697413568707e+01  6.4064768876313039e+01  7.1246240383815277e+01  5.6888404806082740e+01  5.6489477657110356e+01  6.4632065504859469e+01  6.4363303698364234e+01  6.4220221131700086e+01  6.9458845938756753e+01  7.5147362005364201e+01  7.5446202456627574e+01  6.0695189452250254e+01  6.0875801960241311e+01  6.5449936142226733e+01  7.0335575923912089e+01  7.2152231568140181e+01  6.9308248281279774e+01  6.3916464856784145e+01  5.9741428276027442e+01  6.3640055891226694e+01  6.9862253793546685e+01  7.0827492970701655e+01  5.4921040341836054e+01  6.3048284238416663e+01  8.2101383074960964e+01  7.0100159493074869e+01  7.2598707398962532e+01  6.8975406153937797e+01  7.5346575620684206e+01  6.4181267595831017e+01  5.9895015123023057e+01  6.4048958577402317e+01  7.2384530212856333e+01  7.2593148678640844e+01  7.5794344884885959e+01  6.4866501404882456e+01  5.7212255419619886e+01  5.6950100498786085e+01  5.6579142893879684e+01  5.7169813689619417e+01  6.0906875855779475e+01  7.5466876316158292e+01  7.0781519953712944e+01  6.2505548574934920e+01  6.2465096037023798e+01  6.2591059647850187e+01  6.0648861163751178e+01  6.0222181223582467e+01  7.2165589811820155e+01  7.1935596520849032e+01  7.9104861510690952e+01  7.6060631261951400e+01  6.5286993309186840e+01  7.9932841659187261e+01  6.9553177638874274e+01  6.6588252055698973e+01  6.3467518110593574e+01  8.0686242921082268e+01  7.3180190658051501e+01  5.8617082129027764e+01  5.8552531583971131e+01  5.5899387727129884e+01  6.9145898892333506e+01  7.8421591512664165e+01  6.7711109969750368e+01  6.9515812408976757e+01  6.9666667072774047e+01  6.9738655137800706e+01  7.4031725880475406e+01  6.1850691204461882e+01  8.1197239232587819e+01  5.6409269085976149e+01  7.5574623089210149e+01  6.7675844895961987e+01  6.9918041560516855e+01  6.3496790264148629e+01  5.8978753761861846e+01  6.6274083356224097e+01  7.5939518663154942e+01  6.1531496608021548e+01  7.7569103898320165e+01  6.2821484517717643e+01  5.5993765843036783e+01  6.9814735349017155e+01  6.7682875395947960e+01  7.5133060071351380e+01  6.3826445008702663e+01  7.2445642857895763e+01  6.3074682114788033e+01  7.0092613086448310e+01  8.2058698363567601e+01  5.4952389292079744e+01  6.8571614522103403e+01  6.4308438544691256e+01  5.6759103601443869e+01  6.4261856660170565e+01  6.9699341887518784e+01  6.7519943255557351e+01  6.3764462064373483e+01  6.1035945047437764e+01  8.0284308059766346e+01  6.9872279403710905e+01  6.9797526325754248e+01  6.9005770837688999e+01  6.4634065715580164e+01  6.5965113578806651e+01  6.6800332184534071e+01  6.9874969912727849e+01  6.3675025142209115e+01  6.9898489842744098e+01  6.3702149813881668e+01  7.1550338275200360e+01  7.7213177194736232e+01  7.0591002304539103e+01  5.7858979256841089e+01  7.7440060322524843e+01  6.2734629518537076e+01  5.7698714660249394e+01  5.8431723423393777e+01  5.8388052794221458e+01  6.5582061473790446e+01  6.2695674219844882e+01  5.6116988659073122e+01  7.2132003384232249e+01  7.8300466354753141e+01  6.7609455775221036e+01  6.2863028489774166e+01  5.9557803900540485e+01  7.0370927325174733e+01  6.9745668281101885e+01  5.5795049694258033e+01  7.6872712932278247e+01  6.8962564910104305e+01  7.2491644639876114e+01  6.2531020421928716e+01  7.2569666814287416e+01  7.1894135513153174e+01  7.8954654096682134e+01  6.3588854191029419e+01  6.9876726033752689e+01  6.9847801693251924e+01  6.3669704602258562e+01  6.3578710676121723e+01  6.3575510432110001e+01  5.5910612551106183e+01  8.0969941455636274e+01  6.9102977502491001e+01  7.6752744414741528e+01  6.2430476168358716e+01  7.1907731436507760e+01  7.0664687039854456e+01  6.8445830954180821e+01  7.3145983319529719e+01  7.6100351419917359e+01  7.7472712480626967e+01  6.3996846181047587e+01  7.0003977940483864e+01  6.3307843279280050e+01  5.7312904282673053e+01  6.9892062895705919e+01  6.3933325887984310e+01  7.9732873606021030e+01  6.3868602099003148e+01  7.9197857638695623e+01  7.9568424522443721e+01  5.6282858169369270e+01  5.6112485611022713e+01  8.0515643826494852e+01  8.0541814671774901e+01  7.4843145384569667e+01  6.4170706226897153e+01  6.3266147800271639e+01  6.3911663568435401e+01  6.4094394283567780e+01  6.3068166013109860e+01  6.5432417854045468e+01  5.5659328468448798e+01  6.2170834461171296e+01  6.5229332555481051e+01  7.6316281811877488e+01  7.4534982535544358e+01  6.4240511869437853e+01  6.2215417744783281e+01  6.2322494372934479e+01  6.3711338094765793e+01  5.9115103295838622e+01  7.5879048002425620e+01  7.2780553983279191e+01  6.9915159013956213e+01  7.0450584643723928e+01  7.0230159356770187e+01  7.6706462559108274e+01  5.5382820648321342e+01  8.1483733431109371e+01  8.1357417485491993e+01  8.1370078013356618e+01  5.5515415215568552e+01  5.5305107257513647e+01  5.7469277456065697e+01  6.9038021564771611e+01  5.7961528194493013e+01  7.1489856339682618e+01  5.9351644765393686e+01  6.3414115854310630e+01  6.3349437846146266e+01  6.9950134490885304e+01  6.9997706578772224e+01  6.9977108590930527e+01  6.2423501906631429e+01  8.1590932176763033e+01  7.0011515670503002e+01  6.3262482875240721e+01  5.6412231512163764e+01  7.1498752761798272e+01  6.3034089557964798e+01  7.0427782714527083e+01  7.6610197406122339e+01  6.9970576188446913e+01  6.3624077269068962e+01  6.9892094461740925e+01  6.0576834882170552e+01  5.8296268365131866e+01  5.8342110349777172e+01  5.7691679845371411e+01  7.8132858113248034e+01  6.2720118695977902e+01  8.0391771632881188e+01  5.7933078495388528e+01  6.9764155892638144e+01  6.3771156468603181e+01  7.0767700652764148e+01  7.1428077875808285e+01  5.5447603313732976e+01  6.3310955696772290e+01  8.0359983683720429e+01  5.8652519137713313e+01  6.3053429625031555e+01  6.0245892635098301e+01  7.5579673789273841e+01  6.7884577704781421e+01  6.1677164419027953e+01  6.3136331028393442e+01  6.1832627966438857e+01  6.3977906248597421e+01  7.8320998724192535e+01  7.3821109473512479e+01  6.6931957628463380e+01  6.4708176114180333e+01  6.4087974765550697e+01  6.4917169632745598e+01  6.5134156183442173e+01  6.2620009078693670e+01  6.9272343208965296e+01  6.9833432070166268e+01  6.7232702000117072e+01  6.3625133619359680e+01  6.9889443345100275e+01  6.3838237165781443e+01  7.6868923585013064e+01  6.9430639193640530e+01  7.2618840729132131e+01  7.2538988113144399e+01  7.2978132544163913e+01  6.4557492215712855e+01  6.4728941531416424e+01  5.9246900742313500e+01  5.9291670894937411e+01  5.8979343850397171e+01  6.6104065513943354e+01  5.6092010693188733e+01  6.3590660300833676e+01  6.7141688581321816e+01  8.0422250921395829e+01  8.0778880035205347e+01  7.9090441991164468e+01  6.6877543535618599e+01  6.7931194186720148e+01  6.7390658238164150e+01  6.3909261466313190e+01  6.1145452808777804e+01  7.8555008938147523e+01  7.5622612856368406e+01  5.6153835064287328e+01  7.3008205384040437e+01  7.3666092107172503e+01  6.4176404278134484e+01  7.8072640687399328e+01  6.0029724315719250e+01  7.3850767565094102e+01  5.9773203594406475e+01  7.3964069312184293e+01  6.4513246254605676e+01  6.4938806500052152e+01  6.1573282454303389e+01  7.5980172839803814e+01  6.1375450513865964e+01  5.9646404321405747e+01  6.4716204029943356e+01  6.4139436524314746e+01  7.6042254328981315e+01  6.2820715243189746e+01  6.6960258873466003e+01  7.2857538151636376e+01  6.6996317844880465e+01  6.1099518313993194e+01  7.3730242202004248e+01  5.5305060492764476e+01  8.1539764648220583e+01  7.297