<?xml version="1.0"?>
<VTKFile type="UnstructuredGrid"  version="0.1"  >
<UnstructuredGrid>
<Piece  NumberOfPoints="2331" NumberOfCells="4248">
<Points>
<DataArray  type="Float64"  NumberOfComponents="3"  format="ascii">0 0.3 0  0 0 0  0.04999999999999999 0 0  0.0514582251803892 0.02410733605106462 0  0.0558116365147896 0.04786313285751154 0  0.06299675146291706 0.07092097740850717 0  0.07290879486935808 0.09294463440875382 0  0.08540322682126872 0.1136129493462312 0  0.1002978503657798 0.132624531648159 0  0.117375468351841 0.1497021496342203 0  0.1363870506537689 0.1645967731787313 0  0.1570553655912463 0.177091205130642 0  0.1790790225914929 0.187003248537083 0  0.2021368671424885 0.1941883634852104 0  0.2258926639489354 0.1985417748196108 0  0.25 0.2 0  0.2741073360510646 0.1985417748196108 0  0.2978631328575116 0.1941883634852104 0  0.3209209774085071 0.187003248537083 0  0.3429446344087537 0.177091205130642 0  0.3636129493462312 0.1645967731787313 0  0.3826245316481591 0.1497021496342202 0  0.3997021496342202 0.132624531648159 0  0.4145967731787313 0.1136129493462312 0  0.427091205130642 0.09294463440875371 0  0.4370032485370829 0.07092097740850713 0  0.4441883634852104 0.04786313285751155 0  0.4485417748196108 0.02410733605106461 0  0.45 0 0  0.55 0 0  0.5514582251803892 0.02410733605106462 0  0.5558116365147896 0.04786313285751154 0  0.5629967514629171 0.07092097740850717 0  0.5729087948693581 0.09294463440875382 0  0.5854032268212688 0.1136129493462312 0  0.6002978503657798 0.132624531648159 0  0.617375468351841 0.1497021496342203 0  0.6363870506537689 0.1645967731787313 0  0.6570553655912463 0.177091205130642 0  0.6790790225914929 0.187003248537083 0  0.7021368671424885 0.1941883634852104 0  0.7258926639489354 0.1985417748196108 0  0.75 0.2 0  0.7741073360510646 0.1985417748196108 0  0.7978631328575116 0.1941883634852104 0  0.8209209774085071 0.187003248537083 0  0.8429446344087537 0.177091205130642 0  0.8636129493462312 0.1645967731787313 0  0.8826245316481591 0.1497021496342202 0  0.8997021496342202 0.132624531648159 0  0.9145967731787312 0.1136129493462312 0  0.927091205130642 0.09294463440875371 0  0.9370032485370829 0.07092097740850713 0  0.9441883634852104 0.04786313285751155 0  0.9485417748196108 0.02410733605106461 0  0.95 0 0  1 0 0  1 0.3 0  0.9758926639489353 0.3014582251803892 0  0.9521368671424885 0.3058116365147896 0  0.9290790225914928 0.3129967514629171 0  0.9070553655912461 0.3229087948693581 0  0.8863870506537688 0.3354032268212687 0  0.867375468351841 0.3502978503657798 0  0.8502978503657798 0.367375468351841 0  0.8354032268212687 0.3863870506537689 0  0.822908794869358 0.4070553655912464 0  0.8129967514629171 0.4290790225914929 0  0.8058116365147896 0.4521368671424885 0  0.8014582251803892 0.4758926639489354 0  0.8 0.4999999999999999 0  0.8014582251803892 0.5241073360510646 0  0.8058116365147896 0.5478631328575115 0  0.8129967514629171 0.5709209774085071 0  0.8229087948693581 0.5929446344087538 0  0.8354032268212688 0.6136129493462312 0  0.8502978503657798 0.632624531648159 0  0.867375468351841 0.6497021496342202 0  0.8863870506537689 0.6645967731787313 0  0.9070553655912463 0.677091205130642 0  0.9290790225914929 0.6870032485370829 0  0.9521368671424885 0.6941883634852104 0  0.9758926639489354 0.6985417748196108 0  1 0.7 0  1 1 0  0.95 1 0  0.9485417748196108 0.9758926639489353 0  0.9441883634852104 0.9521368671424885 0  0.9370032485370829 0.9290790225914928 0  0.927091205130642 0.9070553655912463 0  0.9145967731787312 0.8863870506537688 0  0.8997021496342201 0.8673754683518409 0  0.882624531648159 0.8502978503657798 0  0.863612949346231 0.8354032268212686 0  0.8429446344087537 0.822908794869358 0  0.8209209774085071 0.8129967514629171 0  0.7978631328575114 0.8058116365147896 0  0.7741073360510646 0.8014582251803892 0  0.75 0.8 0  0.7258926639489353 0.8014582251803892 0  0.7021368671424885 0.8058116365147896 0  0.6790790225914928 0.8129967514629171 0  0.6570553655912461 0.8229087948693581 0  0.6363870506537688 0.8354032268212688 0  0.617375468351841 0.8502978503657798 0  0.6002978503657798 0.867375468351841 0  0.5854032268212687 0.8863870506537689 0  0.572908794869358 0.9070553655912463 0  0.5629967514629171 0.9290790225914929 0  0.5558116365147896 0.9521368671424885 0  0.5514582251803892 0.9758926639489355 0  0.55 0.9999999999999999 0  0.45 0.9999999999999999 0  0.4485417748196108 0.9758926639489353 0  0.4441883634852104 0.9521368671424885 0  0.4370032485370829 0.9290790225914928 0  0.427091205130642 0.9070553655912463 0  0.4145967731787313 0.8863870506537688 0  0.3997021496342201 0.8673754683518409 0  0.382624531648159 0.8502978503657798 0  0.363612949346231 0.8354032268212686 0  0.3429446344087536 0.822908794869358 0  0.3209209774085071 0.8129967514629171 0  0.2978631328575115 0.8058116365147896 0  0.2741073360510646 0.8014582251803892 0  0.25 0.8 0  0.2258926639489353 0.8014582251803892 0  0.2021368671424885 0.8058116365147896 0  0.1790790225914928 0.8129967514629171 0  0.1570553655912462 0.8229087948693581 0  0.1363870506537688 0.8354032268212688 0  0.117375468351841 0.8502978503657798 0  0.1002978503657797 0.867375468351841 0  0.08540322682126869 0.8863870506537689 0  0.07290879486935797 0.9070553655912463 0  0.06299675146291703 0.9290790225914929 0  0.05581163651478957 0.9521368671424885 0  0.0514582251803892 0.9758926639489355 0  0.04999999999999999 0.9999999999999999 0  0 1 0  -0 0.7000000000000001 0  0.0241073360510646 0.6985417748196108 0  0.04786313285751161 0.6941883634852104 0  0.07092097740850711 0.6870032485370829 0  0.09294463440875372 0.677091205130642 0  0.1136129493462312 0.6645967731787312 0  0.1326245316481591 0.6497021496342202 0  0.1497021496342202 0.632624531648159 0  0.1645967731787313 0.6136129493462312 0  0.177091205130642 0.5929446344087537 0  0.187003248537083 0.5709209774085071 0  0.1941883634852104 0.5478631328575115 0  0.1985417748196108 0.5241073360510646 0  0.2 0.5 0  0.1985417748196108 0.4758926639489353 0  0.1941883634852104 0.4521368671424885 0  0.1870032485370829 0.4290790225914928 0  0.177091205130642 0.4070553655912463 0  0.1645967731787313 0.3863870506537688 0  0.1497021496342202 0.3673754683518409 0  0.132624531648159 0.3502978503657798 0  0.113612949346231 0.3354032268212686 0  0.09294463440875361 0.322908794869358 0  0.07092097740850711 0.3129967514629171 0  0.04786313285751148 0.3058116365147896 0  0.02410733605106464 0.3014582251803892 0  0.6985417748196108 0.5241073360510646 0  0.7 0.5 0  0.6985417748196108 0.4758926639489353 0  0.6941883634852104 0.4521368671424885 0  0.6870032485370829 0.4290790225914928 0  0.677091205130642 0.4070553655912463 0  0.6645967731787312 0.3863870506537688 0  0.6497021496342201 0.3673754683518409 0  0.632624531648159 0.3502978503657798 0  0.613612949346231 0.3354032268212686 0  0.5929446344087537 0.322908794869358 0  0.5709209774085071 0.3129967514629171 0  0.5478631328575114 0.3058116365147896 0  0.5241073360510646 0.3014582251803892 0  0.4999999999999999 0.3 0  0.4758926639489353 0.3014582251803892 0  0.4521368671424885 0.3058116365147896 0  0.4290790225914928 0.3129967514629171 0  0.4070553655912462 0.3229087948693581 0  0.3863870506537688 0.3354032268212687 0  0.367375468351841 0.3502978503657798 0  0.3502978503657798 0.367375468351841 0  0.3354032268212687 0.3863870506537689 0  0.322908794869358 0.4070553655912464 0  0.3129967514629171 0.4290790225914929 0  0.3058116365147896 0.4521368671424885 0  0.3014582251803892 0.4758926639489354 0  0.3 0.4999999999999999 0  0.3014582251803892 0.5241073360510646 0  0.3058116365147896 0.5478631328575115 0  0.3129967514629171 0.5709209774085071 0  0.3229087948693581 0.5929446344087538 0  0.3354032268212687 0.6136129493462312 0  0.3502978503657798 0.632624531648159 0  0.367375468351841 0.6497021496342202 0  0.3863870506537689 0.6645967731787313 0  0.4070553655912463 0.677091205130642 0  0.4290790225914929 0.6870032485370829 0  0.4521368671424885 0.6941883634852104 0  0.4758926639489354 0.6985417748196108 0  0.4999999999999999 0.7 0  0.5241073360510646 0.6985417748196108 0  0.5478631328575116 0.6941883634852104 0  0.5709209774085071 0.6870032485370829 0  0.5929446344087537 0.677091205130642 0  0.6136129493462312 0.6645967731787312 0  0.6326245316481591 0.6497021496342202 0  0.6497021496342202 0.632624531648159 0  0.6645967731787312 0.6136129493462312 0  0.677091205130642 0.5929446344087537 0  0.6870032485370829 0.5709209774085071 0  0.6941883634852104 0.5478631328575115 0  0 0.15 0  1 0.15 0  1 0.85 0  0 0.8500000000000001 0  0 0.075 0  1 0.075 0  1 0.925 0  0 0.925 0  0.5 0.8127595604293815 0  0.5069440078039168 0.190422209288238 0  0.25 0.3127595604293815 0  0.756944007803917 0.3095777907117619 0  0.756944007803917 0.6904222092882382 0  0.25 0.6872404395706185 0  0 0.225 0  0.4255768646051012 0.2241073097134061 0  1 0.7749999999999999 0  0.6773391559270888 0.2766774022734219 0  1 0.225 0  0.6755768646051011 0.7241073097134062 0  0 0.7750000000000001 0  0.5818971135297744 0.2287925518358889 0  0.8318971135297746 0.728792551835889 0  0.1659156081861886 0.7301636995921477 0  0.08376842746533225 0.2299656297760495 0  0.4236002201977974 0.7746535834185855 0  0.0840843918138115 0.7698363004078523 0  0.3340843918138113 0.7301636995921477 0  0.3340843918138114 0.2698363004078523 0  0.9159156081861887 0.2301636995921477 0  0.5840843918138116 0.7698363004078522 0  0.1659156081861887 0.2698363004078523 0  0.9162315725346678 0.7700343702239506 0  0.8340843918138114 0.2698363004078523 0  0.75 0.6146645247768686 0  0.5 0.1125158665330878 0  0.75 0.3874841334669124 0  0.2504983345544904 0.6122915843562002 0  0.2504983345544902 0.3877084156437999 0  0.5 0.8879783056303169 0  0.7005361650220154 0.3333055947145943 0  0.70416808765371 0.6599554817221275 0  0.449930214263529 0.1678187287522426 0  0.2247310981387008 0.7415600637745463 0  0.5155081196221678 0.7563797802146907 0  0.2752689018612993 0.2584399362254537 0  0.05605196690611226 0.8246131191226815 0  0.9439480330938878 0.1
[...]
<PointData  Scalars="Temperature"> 
<DataArray  type="Float64"  Name="Temperature"  format="ascii">9.9033279326917764e+01  1.0325117831591690e+02  1.0324418464142397e+02  1.0314773358979286e+02  1.0287807923355578e+02  1.0245891205813346e+02  1.0189860275175053e+02  1.0120327915834829e+02  1.0037973470694153e+02  9.9415997429482985e+01  9.8284732243880882e+01  9.6997669651720628e+01  9.5590257807927387e+01  9.4090876844454115e+01  9.2526119953308324e+01  9.0932431858421523e+01  8.9312815802732757e+01  8.7661598562415165e+01  8.6013027754076404e+01  8.4361551434077569e+01  8.2789367080193685e+01  8.1350627277796775e+01  8.0103659721799588e+01  7.9127476970343707e+01  7.8415551732921287e+01  7.7959023372328630e+01  7.7694511476495123e+01  7.7573783474787916e+01  7.7540910502711597e+01  7.7258442263810821e+01  7.7191226077531695e+01  7.6978170972723262e+01  7.6567998108838552e+01  7.5916013400442750e+01  7.4956952562560772e+01  7.3684979678443810e+01  7.2123735347115343e+01  7.0325861323815602e+01  6.8372533654809928e+01  6.6374146281690912e+01  6.4437624046496126e+01  6.2650119967476314e+01  6.1058771950701285e+01  5.9676706204302889e+01  5.8495193739286691e+01  5.7506860257954358e+01  5.6669338306807518e+01  5.5969601722741352e+01  5.5392237653753462e+01  5.4910738980255850e+01  5.4514242642174821e+01  5.4185667145916476e+01  5.3923540714562705e+01  5.3728219430499188e+01  5.3602638511519785e+01  5.3557803870825971e+01  5.3554173717672541e+01  5.5392857616083532e+01  5.5467654909759915e+01  5.5682659909437341e+01  5.6011819915067733e+01  5.6404300744898997e+01  5.6794984294700697e+01  5.7099998416008724e+01  5.7242864203030706e+01  5.7159355593372737e+01  5.6825165584380244e+01  5.6200054352281043e+01  5.5348441760031136e+01  5.4329789048114904e+01  5.3231395767098824e+01  5.2142254509213586e+01  5.1122983188166110e+01  5.0178264598036733e+01  4.9311685832773541e+01  4.8481105041074855e+01  4.7672428256685464e+01  4.6894064482167721e+01  4.6140006905631552e+01  4.5453085370069225e+01  4.4864170227271941e+01  4.4415087449272789e+01  4.4136947511719086e+01  4.4039225809547247e+01  4.1929986092818680e+01  4.1933232219682651e+01  4.1980861395111553e+01  4.2114542658483415e+01  4.2322926638208081e+01  4.2603411565200673e+01  4.2953520279628727e+01  4.3374578762593742e+01  4.3873933965954123e+01  4.4456800401242390e+01  4.5132127276757885e+01  4.5892892490780284e+01  4.6716264666459729e+01  4.7601263880785652e+01  4.8516640825593207e+01  4.9485541319991221e+01  5.0494539984020079e+01  5.1536612956844095e+01  5.2586614146909334e+01  5.3613190347223082e+01  5.4540931467272202e+01  5.5352507459969566e+01  5.5975044557514948e+01  5.6426105035439221e+01  5.6698232762660005e+01  5.6838301723544653e+01  5.6899175333776256e+01  5.6913391916807782e+01  5.7116333460750454e+01  5.7179365702687157e+01  5.7365341704215560e+01  5.7702780135382902e+01  5.8232428081010383e+01  5.9005000659351118e+01  6.0012088002777581e+01  6.1251297129871759e+01  6.2660596493356309e+01  6.4192981935558379e+01  6.5737887354537506e+01  6.7198022858356111e+01  6.8511602865779892e+01  6.9600945016351176e+01  7.0469044786171224e+01  7.1114273253258929e+01  7.1580592458836506e+01  7.1906777055750482e+01  7.2133963771020831e+01  7.2294403017215757e+01  7.2408675207700611e+01  7.2490873164652442e+01  7.2553167098746343e+01  7.2599007158577365e+01  7.2632283180979286e+01  7.2652337060394032e+01  7.2659855069498647e+01  7.2660117361873318e+01  7.2470841821654503e+01  7.2465853630436698e+01  7.2456354042022937e+01  7.2457961866943165e+01  7.2499134281736900e+01  7.2622426792047094e+01  7.2884405595294197e+01  7.3344142083017090e+01  7.4066171949517255e+01  7.5078495937334992e+01  7.6410356671451567e+01  7.8027917852518144e+01  7.9874491946124337e+01  8.1826786555415097e+01  8.3779661756228464e+01  8.5641426725646070e+01  8.7376970456943440e+01  8.8999942110287009e+01  9.0566262161039177e+01  9.2093489852409718e+01  9.3587046859221829e+01  9.5006933423417848e+01  9.6315311516012727e+01  9.7443837336348267e+01  9.8296678747922584e+01  9.8842194648334669e+01  5.2332452037268894e+01  5.3399869691839392e+01  5.4591562147487345e+01  5.5865372683499587e+01  5.7202668732349643e+01  5.8623202623217651e+01  6.0169767445339488e+01  6.1875727943205050e+01  6.3771368254792847e+01  6.5801398128716073e+01  6.7939393300629632e+01  7.0145620099262572e+01  7.2336787002758911e+01  7.4486966996562444e+01  7.6571952682544705e+01  7.8579862924996817e+01  8.0484667010124681e+01  8.2278678842464132e+01  8.3904639635691808e+01  8.5312215482853020e+01  8.6384304368157331e+01  8.7077524131766921e+01  8.7310016568569850e+01  8.7057536346409790e+01  8.6296370629643704e+01  8.5091894036935770e+01  8.3507646270534977e+01  8.1652586972466182e+01  7.9672885020983870e+01  7.7682516574881987e+01  7.5761370718371040e+01  7.3881398137864224e+01  7.2072632360366654e+01  7.0284700982560466e+01  6.8479497122323579e+01  6.6667691328067974e+01  6.4829353826208845e+01  6.3039402919306468e+01  6.1293134800964971e+01  5.9644803190824206e+01  5.8082582749867093e+01  5.6618446099241083e+01  5.5248194355586307e+01  5.3999595764194979e+01  5.2868297970055224e+01  5.1902385278703896e+01  5.1145827174876821e+01  5.0628893752788088e+01  5.0393084882784457e+01  5.0456253049108568e+01  5.0819929548394896e+01  5.1459354030628631e+01  1.0120573295361595e+02  5.4487012846298654e+01  4.2944106669021842e+01  7.2518526573204923e+01  1.0262374305587456e+02  5.3845286941018792e+01  4.2240494011741525e+01  7.2613755314467468e+01  5.7691163894742267e+01  7.6522994311557667e+01  9.0075614094409943e+01  5.9557996259683883e+01  4.8691891073918853e+01  7.1437025128391312e+01  9.9773224051428258e+01  8.0989857600074657e+01  4.3661633936727540e+01  6.4081073820225399e+01  5.5096170131939971e+01  5.0793139278425222e+01  7.2467309722206338e+01  7.1589690647561497e+01  4.6488165025417580e+01  7.1969748878130360e+01  9.8497735835322317e+01  6.1429142576410150e+01  7.2335169251711790e+01  6.7083271110797895e+01  8.6555682777965131e+01  5.5714771320937977e+01  5.4427901250633461e+01  9.4547281893708444e+01  4.4327131934179668e+01  5.7556675878647184e+01  4.9774300511854719e+01  7.7163638060090364e+01  5.7730930652179822e+01  7.4435763021306315e+01  8.8112059515711081e+01  5.7320109959972179e+01  6.1081535779904478e+01  4.9945079152928024e+01  7.9065946113683921e+01  7.0848991810949357e+01  5.7213346578955637e+01  8.9432097818802930e+01  7.2436365502403575e+01  5.4936512777702042e+01  1.0025185948664870e+02  4.3473054615869337e+01  7.7685804764282878e+01  4.9170545674341582e+01  6.1446579321671571e+01  5.9494870731832769e+01  7.2592609654535011e+01  9.2077759990992263e+01  7.0029335816427462e+01  8.7870724133058815e+01  5.5783151765703707e+01  7.7336592722684145e+01  5.5654764147266405e+01  5.1568714862612687e+01  8.5452463194121520e+01  7.8467265135806088e+01  5.7012672181546797e+01  5.7101385697146014e+01  9.2075750149475752e+01  6.9309967775077496e+01  7.4017009052920329e+01  4.8476452878191914e+01  5.7852900330018663e+01  6.7730770800484152e+01  8.3641081079501831e+01  8.4473171578721406e+01  5.2369649562741934e+01  5.2912588922422920e+01  6.7093589831228286e+01  4.7731000856162972e+01  5.9153766310279842e+01  5.3551348093777634e+01  7.7400828948396097e+01  8.2144904945281397e+01  6.4202771309937958e+01  6.4607931080003439e+01  7.4665026297522019e+01  4.5274223284056561e+01  4.5360688058519194e+01  5.9162468862348021e+01  9.7040815478036379e+01  7.2444429570298141e+01  5.6247997030785427e+01  7.2029271640902749e+01  9.6282213352796788e+01  7.2327796741279371e+01  5.5410945364122135e+01  5.6649628640743508e+01  4.4105603854194669e+01  9.8901859717508572e+01  5.4415328243047533e+01  4.2800736371209517e+01  1.0150322922667031e+02  7.2519341725575842e+01  5.7622471725732375e+01  4.7605946642487346e+01  7.5723036207882856e+01  4.9669691306977171e+01  5.4292928704273024e+01  6.7663692004987539e+01  9.4252588649205748e+01  5.5552147546378372e+01  8.6235647661754186e+01  7.2507951023656801e+01  7.2287515954140972e+01  9.9018526889737686e+01  4.4142936219300395e+01  7.3838173664341767e+01  8.9968010517113171e+01  5.6888323357467449e+01  4.6710195352319161e+01  8.8645380470009428e+01  7.2239029185463679e+01  6.4029497315484790e+01  6.4089537419577141e+01  6.1771789467646791e+01  8.0325213732191202e+01  5.1290546322945538e+01  8.1762276133838910e+01  5.0825364509866368e+01  5.8354627201004760e+01  6.0867285012581362e+01  7.1277706158496628e+01  6.1574234296286065e+01  4.6661897112303187e+01  7.0480009101118213e+01  7.1373420802118048e+01  8.6867598545589402e+01  6.7384841496627146e+01  9.4046262010044728e+01  5.7155475803643846e+01  5.4629507747127981e+01  7.8528874486216353e+01  9.9653155562764184e+01  5.7819059412810219e+01  5.5204024744082787e+01  7.2429148707583039e+01  5.6447512864981753e+01  7.2483770874517376e+01  5.4814328838280176e+01  5.8506166894673946e+01  4.3309601901643376e+01  7.8311340273830609e+01  5.9217382422919506e+01  5.9143018640388249e+01  7.7445390551931411e+01  1.0045625017769419e+02  5.0346071281463004e+01  5.0381929888549394e+01  4.9116591020992637e+01  7.6361911217207407e+01  8.8058656924881873e+01  7.2924948868307311e+01  8.7618308080406280e+01  7.2414855813353356e+01  7.7686667741768474e+01  7.6820091319960781e+01  5.6519718096394158e+01  5.7318596729960056e+01  5.6432361317280822e+01  5.6895655465671524e+01  5.7661821673290213e+01  4.3322724104973503e+01  7.2467774972658759e+01  4.2570846110324389e+01  5.5297853807382836e+01  9.9250805260745935e+01  5.3631395198649329e+01  1.0308550613147420e+02  5.4148242133918849e+01  5.4035514534585495e+01  1.0196028773865621e+02  4.2011640141119756e+01  7.2647719531960490e+01  4.3925244130425000e+01  7.2566787589151360e+01  7.2581247778094266e+01  8.6679410880922404e+01  7.6050532578443836e+01  7.1670668132926764e+01  8.8226177590892888e+01  5.8182080019300543e+01  4.4673663354304530e+01  6.9275652555774528e+01  9.1666668017023738e+01  4.8208578754170318e+01  4.9271743471137235e+01  5.8835684478353315e+01  4.3757191555264939e+01  5.5679683980448409e+01  7.5540026640683124e+01  7.2812351668388970e+01  8.9773764254198753e+01  9.6270457597794092e+01  6.9440951251634061e+01  7.5723210336836573e+01  5.9856241025573063e+01  5.8518258152419193e+01  5.6189264160912934e+01  5.0434452815136090e+01  5.0629140545038219e+01  4.2431476029936881e+01  1.0223917742677666e+02  9.7768749564421157e+01  4.7626386808149604e+01  7.0131320151656581e+01  9.1622460503484760e+01  5.6750600360126413e+01  7.3671146819811369e+01  4.9899569416425784e+01  5.5754287357504289e+01  6.0868413788749315e+01  8.2676970718259057e+01  5.1769787852794295e+01  6.2597824294171126e+01  1.0285839380317445e+02  5.3786116940176058e+01  4.2125022535921502e+01  7.2630232200266818e+01  6.3378021293921947e+01  5.1063434829795945e+01  7.9413016631283725e+01  7.2447203052774313e+01  7.2488092499652922e+01  5.4770214863563240e+01  5.4699067371733435e+01  6.5583238873243815e+01  1.0006192593415346e+02  9.9407541172262597e+01  1.0073454442323722e+02  8.0306905420098488e+01  7.9926285430146535e+01  9.8007622349573069e+01  5.8944239355921603e+01  7.2471560570841305e+01  7.2072443288962020e+01  5.6190619035023957e+01  6.2715026578660442e+01  6.0230419354369438e+01  8.3455037784181158e+01  5.2284503913374373e+01  4.3110645427163504e+01  5.0276696105305106e+01  4.9383165550484790e+01  7.2424268100577763e+01  5.6935756908751024e+01  5.7339277070349780e+01  7.7485438838626379e+01  7.7282198902817768e+01  5.4556604179118317e+01  5.5213617670584767e+01  8.3825876857834146e+01  8.4749233662470360e+01  6.2778549175518449e+01  4.5914111074116171e+01  5.7196452100931850e+01  6.7369503691896426e+01  8.7875957895844593e+01  6.5865820783211120e+01  9.3091299773564714e+01  6.8736483072774149e+01  7.0293777251197156e+01  7.1585837626356650e+01  8.8706025660315916e+01  9.0493018838737939e+01  7.0788691641503078e+01  5.5077006364224609e+01  5.5762473851935098e+01  8.8902162330701259e+01  7.2203695034086692e+01  8.7497491309417413e+01  9.2742329960268236e+01  6.9492219753155965e+01  7.3339551902801276e+01  5.6707304946929312e+01  5.2546028149920026e+01  5.2691252452717031e+01  8.0674149751246389e+01  8.0315905266401998e+01  9.5769133635521001e+01  5.0111881931171382e+01  4.9736827900970049e+01  4.8946165995616482e+01  8.2219889054478926e+01  5.1793165341705027e+01  5.7565331467647191e+01  8.1951370676579629e+01  5.9387820902175932e+01  6.0234399220275002e+01  6.0394001617784525e+01  7.7601961574079951e+01  7.7075235964510412e+01  6.2446157649393029e+01  6.5558477708007089e+01  4.3860950169563367e+01  9.7669523550095420e+01  5.7415854350117073e+01  7.4383621673005180e+01  4.5502742189216342e+01  4.4763277931549759e+01  5.8599749414636236e+01  5.7732270608176748e+01  5.7025485245340008e+01  7.1702638464801083e+01  8.4651157937795602e+01  8.5441007086027227e+01  5.3172160482907785e+01  5.3548807468279989e+01  6.3377107886446836e+01  7.2222142634644172e+01  7.6609994773720146e+01  6.9755570928143925e+01  5.6222347376303148e+01  5.0444477168466797e+01  5.5367510000619831e+01  7.2377394095779749e+01  7.3506824039958957e+01  4.1931629150073611e+01  5.3555877807152463e+01  1.0324823795128792e+02  7.2660068606727833e+01  7.7820025214329419e+01  6.9027470787829301e+01  8.5143013828851025e+01  6.0627686273386210e+01  5.1441605328311660e+01  5.6741487968489253e+01  7.7067195719493910e+01  7.7593790408426500e+01  8.6957056062764522e+01  5.8793033771520484e+01  4.6052058564024200e+01  4.5589026356022529e+01  4.4909926350158948e+01  4.6009620691092266e+01  5.3581557271131352e+01  8.5433389641321853e+01  7.5103121774783943e+01  5.7030327706646183e+01  5.6943528227674690e+01  5.7215810459665271e+01  5.3050457128248716e+01  5.1195041086480444e+01  7.8402836919371580e+01  7.7887856290149458e+01  9.5281905832961556e+01  8.7130106608784033e+01  6.3011193587828004e+01  9.7458324476145961e+01  7.2209610733631166e+01  6.5804098768156280e+01  5.6784898725917394e+01  9.9456925661581650e+01  7.9252977073978428e+01  4.8502251602203117e+01  4.8485080863212609e+01  4.3683083709445661e+01  7.1457909085637141e+01  9.3447286787500900e+01  6.8220277711068846e+01  7.1849333310143436e+01  7.2137459034842351e+01  7.2223551492842645e+01  8.2813093918885400e+01  5.3971811268309821e+01  1.0082081927752120e+02  4.4608536127308433e+01  8.6467820146325167e+01  6.5951170074930346e+01  7.2465452665171597e+01  5.4938759495467629e+01  4.9172261809543734e+01  6.2735507434534064e+01  8.6870430505611552e+01  5.4956701653756561e+01  9.1344063311949796e+01  5.5581565053093520e+01  4.3841818453447544e+01  7.2430642058476465e+01  6.5893158494007423e+01  8.5372797251119849e+01  5.5922112935020259e+01  7.7259594257460023e+01  5.3636189149314255e+01  7.2651104747334315e+01  1.0313334922714061e+02  4.1987407471553247e+01  7.0013247614329558e+01  5.8238864636345390e+01  4.5219636683641809e+01  5.7220653706882530e+01  7.2271372011342635e+01  6.5404590288990931e+01  5.5820010706574408e+01  5.3875939060309264e+01  9.8391395297759090e+01  7.2810259501370169e+01  7.2340187901353715e+01  7.1171677057327315e+01  5.8299174838762049e+01  6.4473310669928409e+01  6.6288928312257966e+01  7.2455375583403679e+01  5.5527301653830342e+01  7.2454269811848803e+01  5.7000370530978849e+01  7.5225019237959145e+01  9.0170279228396382e+01  7.4770298696786341e+01  4.7340455570462140e+01  9.0950278599618457e+01  5.7528300590442775e+01  4.6991100167447726e+01  4.8418487165753007e+01  4.8280627528283418e+01  6.0826052971303298e+01  5.7438573948159380e+01  4.4067533247575909e+01  7.6513634802610937e+01  9.3087592584552752e+01  6.7955820346330214e+01  5.7800860249230624e+01  5.0284425790655710e+01  7.4239974265902390e+01  7.2202130995071826e+01  4.3488905602280433e+01  8.9336615329788756e+01  7.1002139377375286e+01  7.7302336886989238e+01  5.7084351065900769e+01  7.7499959335742659e+01  7.5924585895899696e+01  9.4836387502878935e+01  5.5190443106919354e+01  7.2379790688720604e+01  7.2400601186082113e+01  5.5484955867412388e+01  5.5210483675547586e+01  5.5194913520307928e+01  4.3707371060814509e+01  1.0021282604393221e+02  6.9223228979206127e+01  8.9328912413870057e+01  5.6874318074660849e+01  7.6167957029059536e+01  7.3072301194440911e+01  6.7707904098028152e+01  7.9364170010224981e+01  8.7608697375422878e+01  9.0891306869137210e+01  5.6641043938357669e+01  7.2543528426762450e+01  5.4344511600913314e+01  4.6300590308220066e+01  7.2975015199475820e+01  6.0107592420733148e+01  9.6941797969151821e+01  5.6173177319244928e+01  9.5504786785083937e+01  9.6474095959094242e+01  4.4360629655841450e+01  4.4053111230423589e+01  9.9004196042339785e+01  9.9073397323622089e+01  8.3782449573673276e+01  6.0606936636081663e+01  5.6516933233885432e+01  5.7456119131337353e+01  6.0449925022939553e+01  5.8245605071697341e+01  6.0329669019394288e+01  4.3247238298301326e+01  5.6321406367277021e+01  6.2880910408129957e+01  8.8000795196004034e+01  8.3994319251062549e+01  5.7809928023728574e+01  5.4584668566768222e+01  5.6642685909773547e+01  5.9628052597870230e+01  4.9534743764824000e+01  8.7057649950034346e+01  7.8145557948892559e+01  7.2452052713545498e+01  7.4283922163801094e+01  7.3834542134175265e+01  8.9147817619477280e+01  4.2753995203369364e+01  1.0158811594172241e+02  1.0124948535246935e+02  1.0128385384895293e+02  4.2993806998273868e+01  4.2616668458193729e+01  4.6489411287686082e+01  7.0900131622234099e+01  4.7459410235503064e+01  7.6825683252265989e+01  4.9737788428208653e+01  5.4671770505831368e+01  5.4476841556152706e+01  7.2482513320186811e+01  7.2541369172015379e+01  7.2517304448844044e+01  5.6856642416637627e+01  1.0187611452191219e+02  7.2555710959654135e+01  5.4209175749544421e+01  4.4601355872037502e+01  7.5014130140819546e+01  5.8165481020158204e+01  7.2543489639369994e+01  8.8853747035231365e+01  7.3271275834517425e+01  5.5363280428245240e+01  7.2469683610944571e+01  5.1820806886428578e+01  4.7998772823732793e+01  4.8140264545981587e+01  4.6927269658011895e+01  9.2653684230455482e+01  5.7496865254006288e+01  9.8669050642365491e+01  4.7341346704490846e+01  7.2205877557965380e+01  5.5728053068698983e+01  7.5101001454310904e+01  7.4887436678983889e+01  4.2869854254031743e+01  5.8761438237379210e+01  9.8592801214640531e+01  4.8909419641590986e+01  5.3571546851787069e+01  5.2182402092957112e+01  8.5756106752958729e+01  6.8556777610144309e+01  5.3635416022815200e+01  5.8390899371937060e+01  5.5595341526987042e+01  5.7884605004967945e+01  9.3243620650271339e+01  8.2308412953457648e+01  6.6516676202823788e+01  5.9357646149369657e+01  5.7061887589191464e+01  5.9217916600213009e+01  6.0166026450711485e+01  5.7280991036999779e+01  7.1349235560113726e+01  7.2616243992269190e+01  6.7252653971491739e+01  5.5363809998722530e+01  7.2464522958054701e+01  5.6013320740265875e+01  8.9441355375139707e+01  7.2016282352091153e+01  7.7739689551408105e+01  7.7573556703775566e+01  7.8735547514731323e+01  5.7950233423231253e+01  6.1821680148857837e+01  4.9931080731830988e+01  5.0122988153868960e+01  4.9489105194198579e+01  6.2302905075300451e+01  4.4030647885178922e+01  5.5206668632449791e+01  6.4644666202223490e+01  9.8753288155024009e+01  9.9702823576792881e+01  9.5206529917760761e+01  6.3840933671233692e+01  6.8756271629271637e+01  6.7567281048064018e+01  5.7262203267646306e+01  5.4133548106530881e+01  9.3875358649057887e+01  8.5972169232628971e+01  4.4150994174584412e+01  7.8983862459754306e+01  8.0674648373254954e+01  5.7086559536201321e+01  9.2539466140262505e+01  5.1635835744138099e+01  8.1107628965244771e+01  5.1121802186046033e+01  8.1371935444711667e+01  6.1344296413470673e+01  6.2252611810865773e+01  5.5044613872889109e+01  8.6819968139562803e+01  5.4596548450918483e+01  5.0956380716262167e+01  5.9231090818981251e+01  5.8107520205923677e+01  8.7120849453984505e+01  5.7708865620566634e+01  6.4117672253930323e+01  8.0043788362518711e+01  6.4384404422358585e+01  5.2673046953724970e+01  8.0880816912962160e+01  4.2615731919246180e+01  1.0173852269639222e+02  7.868