<?xml version="1.0"?>
<VTKFile type="UnstructuredGrid"  version="0.1"  >
<UnstructuredGrid>
<Piece  NumberOfPoints="2331" NumberOfCells="4248">
<Points>
<DataArray  type="Float64"  NumberOfComponents="3"  format="ascii">0 0.3 0  0 0 0  0.04999999999999999 0 0  0.0514582251803892 0.02410733605106462 0  0.0558116365147896 0.04786313285751154 0  0.06299675146291706 0.07092097740850717 0  0.07290879486935808 0.09294463440875382 0  0.08540322682126872 0.1136129493462312 0  0.1002978503657798 0.132624531648159 0  0.117375468351841 0.1497021496342203 0  0.1363870506537689 0.1645967731787313 0  0.1570553655912463 0.177091205130642 0  0.1790790225914929 0.187003248537083 0  0.2021368671424885 0.1941883634852104 0  0.2258926639489354 0.1985417748196108 0  0.25 0.2 0  0.2741073360510646 0.1985417748196108 0  0.2978631328575116 0.1941883634852104 0  0.3209209774085071 0.187003248537083 0  0.3429446344087537 0.177091205130642 0  0.3636129493462312 0.1645967731787313 0  0.3826245316481591 0.1497021496342202 0  0.3997021496342202 0.132624531648159 0  0.4145967731787313 0.1136129493462312 0  0.427091205130642 0.09294463440875371 0  0.4370032485370829 0.07092097740850713 0  0.4441883634852104 0.04786313285751155 0  0.4485417748196108 0.02410733605106461 0  0.45 0 0  0.55 0 0  0.5514582251803892 0.02410733605106462 0  0.5558116365147896 0.04786313285751154 0  0.5629967514629171 0.07092097740850717 0  0.5729087948693581 0.09294463440875382 0  0.5854032268212688 0.1136129493462312 0  0.6002978503657798 0.132624531648159 0  0.617375468351841 0.1497021496342203 0  0.6363870506537689 0.1645967731787313 0  0.6570553655912463 0.177091205130642 0  0.6790790225914929 0.187003248537083 0  0.7021368671424885 0.1941883634852104 0  0.7258926639489354 0.1985417748196108 0  0.75 0.2 0  0.7741073360510646 0.1985417748196108 0  0.7978631328575116 0.1941883634852104 0  0.8209209774085071 0.187003248537083 0  0.8429446344087537 0.177091205130642 0  0.8636129493462312 0.1645967731787313 0  0.8826245316481591 0.1497021496342202 0  0.8997021496342202 0.132624531648159 0  0.9145967731787312 0.1136129493462312 0  0.927091205130642 0.09294463440875371 0  0.9370032485370829 0.07092097740850713 0  0.9441883634852104 0.04786313285751155 0  0.9485417748196108 0.02410733605106461 0  0.95 0 0  1 0 0  1 0.3 0  0.9758926639489353 0.3014582251803892 0  0.9521368671424885 0.3058116365147896 0  0.9290790225914928 0.3129967514629171 0  0.9070553655912461 0.3229087948693581 0  0.8863870506537688 0.3354032268212687 0  0.867375468351841 0.3502978503657798 0  0.8502978503657798 0.367375468351841 0  0.8354032268212687 0.3863870506537689 0  0.822908794869358 0.4070553655912464 0  0.8129967514629171 0.4290790225914929 0  0.8058116365147896 0.4521368671424885 0  0.8014582251803892 0.4758926639489354 0  0.8 0.4999999999999999 0  0.8014582251803892 0.5241073360510646 0  0.8058116365147896 0.5478631328575115 0  0.8129967514629171 0.5709209774085071 0  0.8229087948693581 0.5929446344087538 0  0.8354032268212688 0.6136129493462312 0  0.8502978503657798 0.632624531648159 0  0.867375468351841 0.6497021496342202 0  0.8863870506537689 0.6645967731787313 0  0.9070553655912463 0.677091205130642 0  0.9290790225914929 0.6870032485370829 0  0.9521368671424885 0.6941883634852104 0  0.9758926639489354 0.6985417748196108 0  1 0.7 0  1 1 0  0.95 1 0  0.9485417748196108 0.9758926639489353 0  0.9441883634852104 0.9521368671424885 0  0.9370032485370829 0.9290790225914928 0  0.927091205130642 0.9070553655912463 0  0.9145967731787312 0.8863870506537688 0  0.8997021496342201 0.8673754683518409 0  0.882624531648159 0.8502978503657798 0  0.863612949346231 0.8354032268212686 0  0.8429446344087537 0.822908794869358 0  0.8209209774085071 0.8129967514629171 0  0.7978631328575114 0.8058116365147896 0  0.7741073360510646 0.8014582251803892 0  0.75 0.8 0  0.7258926639489353 0.8014582251803892 0  0.7021368671424885 0.8058116365147896 0  0.6790790225914928 0.8129967514629171 0  0.6570553655912461 0.8229087948693581 0  0.6363870506537688 0.8354032268212688 0  0.617375468351841 0.8502978503657798 0  0.6002978503657798 0.867375468351841 0  0.5854032268212687 0.8863870506537689 0  0.572908794869358 0.9070553655912463 0  0.5629967514629171 0.9290790225914929 0  0.5558116365147896 0.9521368671424885 0  0.5514582251803892 0.9758926639489355 0  0.55 0.9999999999999999 0  0.45 0.9999999999999999 0  0.4485417748196108 0.9758926639489353 0  0.4441883634852104 0.9521368671424885 0  0.4370032485370829 0.9290790225914928 0  0.427091205130642 0.9070553655912463 0  0.4145967731787313 0.8863870506537688 0  0.3997021496342201 0.8673754683518409 0  0.382624531648159 0.8502978503657798 0  0.363612949346231 0.8354032268212686 0  0.3429446344087536 0.822908794869358 0  0.3209209774085071 0.8129967514629171 0  0.2978631328575115 0.8058116365147896 0  0.2741073360510646 0.8014582251803892 0  0.25 0.8 0  0.2258926639489353 0.8014582251803892 0  0.2021368671424885 0.8058116365147896 0  0.1790790225914928 0.8129967514629171 0  0.1570553655912462 0.8229087948693581 0  0.1363870506537688 0.8354032268212688 0  0.117375468351841 0.8502978503657798 0  0.1002978503657797 0.867375468351841 0  0.08540322682126869 0.8863870506537689 0  0.07290879486935797 0.9070553655912463 0  0.06299675146291703 0.9290790225914929 0  0.05581163651478957 0.9521368671424885 0  0.0514582251803892 0.9758926639489355 0  0.04999999999999999 0.9999999999999999 0  0 1 0  -0 0.7000000000000001 0  0.0241073360510646 0.6985417748196108 0  0.04786313285751161 0.6941883634852104 0  0.07092097740850711 0.6870032485370829 0  0.09294463440875372 0.677091205130642 0  0.1136129493462312 0.6645967731787312 0  0.1326245316481591 0.6497021496342202 0  0.1497021496342202 0.632624531648159 0  0.1645967731787313 0.6136129493462312 0  0.177091205130642 0.5929446344087537 0  0.187003248537083 0.5709209774085071 0  0.1941883634852104 0.5478631328575115 0  0.1985417748196108 0.5241073360510646 0  0.2 0.5 0  0.1985417748196108 0.4758926639489353 0  0.1941883634852104 0.4521368671424885 0  0.1870032485370829 0.4290790225914928 0  0.177091205130642 0.4070553655912463 0  0.1645967731787313 0.3863870506537688 0  0.1497021496342202 0.3673754683518409 0  0.132624531648159 0.3502978503657798 0  0.113612949346231 0.3354032268212686 0  0.09294463440875361 0.322908794869358 0  0.07092097740850711 0.3129967514629171 0  0.04786313285751148 0.3058116365147896 0  0.02410733605106464 0.3014582251803892 0  0.6985417748196108 0.5241073360510646 0  0.7 0.5 0  0.6985417748196108 0.4758926639489353 0  0.6941883634852104 0.4521368671424885 0  0.6870032485370829 0.4290790225914928 0  0.677091205130642 0.4070553655912463 0  0.6645967731787312 0.3863870506537688 0  0.6497021496342201 0.3673754683518409 0  0.632624531648159 0.3502978503657798 0  0.613612949346231 0.3354032268212686 0  0.5929446344087537 0.322908794869358 0  0.5709209774085071 0.3129967514629171 0  0.5478631328575114 0.3058116365147896 0  0.5241073360510646 0.3014582251803892 0  0.4999999999999999 0.3 0  0.4758926639489353 0.3014582251803892 0  0.4521368671424885 0.3058116365147896 0  0.4290790225914928 0.3129967514629171 0  0.4070553655912462 0.3229087948693581 0  0.3863870506537688 0.3354032268212687 0  0.367375468351841 0.3502978503657798 0  0.3502978503657798 0.367375468351841 0  0.3354032268212687 0.3863870506537689 0  0.322908794869358 0.4070553655912464 0  0.3129967514629171 0.4290790225914929 0  0.3058116365147896 0.4521368671424885 0  0.3014582251803892 0.4758926639489354 0  0.3 0.4999999999999999 0  0.3014582251803892 0.5241073360510646 0  0.3058116365147896 0.5478631328575115 0  0.3129967514629171 0.5709209774085071 0  0.3229087948693581 0.5929446344087538 0  0.3354032268212687 0.6136129493462312 0  0.3502978503657798 0.632624531648159 0  0.367375468351841 0.6497021496342202 0  0.3863870506537689 0.6645967731787313 0  0.4070553655912463 0.677091205130642 0  0.4290790225914929 0.6870032485370829 0  0.4521368671424885 0.6941883634852104 0  0.4758926639489354 0.6985417748196108 0  0.4999999999999999 0.7 0  0.5241073360510646 0.6985417748196108 0  0.5478631328575116 0.6941883634852104 0  0.5709209774085071 0.6870032485370829 0  0.5929446344087537 0.677091205130642 0  0.6136129493462312 0.6645967731787312 0  0.6326245316481591 0.6497021496342202 0  0.6497021496342202 0.632624531648159 0  0.6645967731787312 0.6136129493462312 0  0.677091205130642 0.5929446344087537 0  0.6870032485370829 0.5709209774085071 0  0.6941883634852104 0.5478631328575115 0  0 0.15 0  1 0.15 0  1 0.85 0  0 0.8500000000000001 0  0 0.075 0  1 0.075 0  1 0.925 0  0 0.925 0  0.5 0.8127595604293815 0  0.5069440078039168 0.190422209288238 0  0.25 0.3127595604293815 0  0.756944007803917 0.3095777907117619 0  0.756944007803917 0.6904222092882382 0  0.25 0.6872404395706185 0  0 0.225 0  0.4255768646051012 0.2241073097134061 0  1 0.7749999999999999 0  0.6773391559270888 0.2766774022734219 0  1 0.225 0  0.6755768646051011 0.7241073097134062 0  0 0.7750000000000001 0  0.5818971135297744 0.2287925518358889 0  0.8318971135297746 0.728792551835889 0  0.1659156081861886 0.7301636995921477 0  0.08376842746533225 0.2299656297760495 0  0.4236002201977974 0.7746535834185855 0  0.0840843918138115 0.7698363004078523 0  0.3340843918138113 0.7301636995921477 0  0.3340843918138114 0.2698363004078523 0  0.9159156081861887 0.2301636995921477 0  0.5840843918138116 0.7698363004078522 0  0.1659156081861887 0.2698363004078523 0  0.9162315725346678 0.7700343702239506 0  0.8340843918138114 0.2698363004078523 0  0.75 0.6146645247768686 0  0.5 0.1125158665330878 0  0.75 0.3874841334669124 0  0.2504983345544904 0.6122915843562002 0  0.2504983345544902 0.3877084156437999 0  0.5 0.8879783056303169 0  0.7005361650220154 0.3333055947145943 0  0.70416808765371 0.6599554817221275 0  0.449930214263529 0.1678187287522426 0  0.2247310981387008 0.7415600637745463 0  0.5155081196221678 0.7563797802146907 0  0.2752689018612993 0.2584399362254537 0  0.05605196690611226 0.8246131191226815 0  0.9439480330938878 0.1
[...]
<PointData  Scalars="Temperature"> 
<DataArray  type="Float64"  Name="Temperature"  format="ascii">1.0145109296686582e+02  1.0605348850165203e+02  1.0604585302933414e+02  1.0594054069394292e+02  1.0564612733715342e+02  1.0518852364855151e+02  1.0457694119990860e+02  1.0381818527074037e+02  1.0291975617189962e+02  1.0186870737280964e+02  1.0063531415033282e+02  9.9232378690458461e+01  9.7698495528989909e+01  9.6064486627398225e+01  9.4359244356182657e+01  9.2622401955661104e+01  9.0857336485433819e+01  8.9058126125117980e+01  8.7262325513867665e+01  8.5464039847005836e+01  8.3752617153274443e+01  8.2186557123218918e+01  8.0828952877260633e+01  7.9765129058416903e+01  7.8987956399469809e+01  7.8487822858318793e+01  7.8196644065566986e+01  7.8062629245129102e+01  7.8025908203528076e+01  7.7721111864690741e+01  7.7649912185744981e+01  7.7423714031799520e+01  7.6986954005388668e+01  7.6291057924234167e+01  7.5265526663495066e+01  7.3903901623208867e+01  7.2231792435537798e+01  7.0305756266199182e+01  6.8213058808486579e+01  6.6071958152682697e+01  6.3996626436932978e+01  6.2079935407600097e+01  6.0371736927320150e+01  5.8885806514068129e+01  5.7613066917417974e+01  5.6546153332435445e+01  5.5640287324308780e+01  5.4882290812145946e+01  5.4256210625118364e+01  5.3733744215726787e+01  5.3303361088591288e+01  5.2946653775435792e+01  5.2662075948940462e+01  5.2450035132100382e+01  5.2313711745703245e+01  5.2265043451467413e+01  5.2261103693064328e+01  5.4261568301018436e+01  5.4343237825990599e+01  5.4578143241543437e+01  5.4938377878057040e+01  5.5369341327243575e+01  5.5801268879258274e+01  5.6144374026788093e+01  5.6317362697186915e+01  5.6251597860678032e+01  5.5921413511227200e+01  5.5284895459528435e+01  5.4410570991360849e+01  5.3361538953492499e+01  5.2229766962177465e+01  5.1108391033346926e+01  5.0059869797874349e+01  4.9088644119121199e+01  4.8197756508310221e+01  4.7343085923720977e+01  4.6509799154583369e+01  4.5706794564666914e+01  4.4928008647305447e+01  4.4218142891128821e+01  4.3609342148035999e+01  4.3145038481499761e+01  4.2857454927822516e+01  4.2756413206872594e+01  4.0581259489787868e+01  4.0584607309338516e+01  4.0633710502801250e+01  4.0771543479931410e+01  4.0986451022780955e+01  4.1275826734072098e+01  4.1637259857044100e+01  4.2072277555705405e+01  4.2588647070321187e+01  4.3192015232433256e+01  4.3891952271019697e+01  4.4681666621099744e+01  4.5537947661138773e+01  4.6460379383099507e+01  4.7416955464898990e+01  4.8432148383761252e+01  4.9491781259851841e+01  5.0588206889029763e+01  5.1694387197325447e+01  5.2776641417457036e+01  5.3755032347245603e+01  5.4610887049916975e+01  5.5267114472472912e+01  5.5742215743550325e+01  5.6028366010105593e+01  5.6175184095788431e+01  5.6238724398695709e+01  5.6253475617732597e+01  5.6468112395482130e+01  5.6535117095850289e+01  5.6732747270943733e+01  5.7091087441350275e+01  5.7653223581752236e+01  5.8472774913625450e+01  5.9540823408874246e+01  6.0854846161255949e+01  6.2349046281109452e+01  6.3973552380662831e+01  6.5610859147039989e+01  6.7157441182384602e+01  6.8547205396614302e+01  6.9697631453988905e+01  7.0611610049015312e+01  7.1287544326608739e+01  7.1772802509575257e+01  7.2109087338942672e+01  7.2340581859234163e+01  7.2502061736384988e+01  7.2615533712050166e+01  7.2696017909012696e+01  7.2756316508711237e+01  7.2800249816824191e+01  7.2831958263848136e+01  7.2851012321889655e+01  7.2858147255897748e+01  7.2858401805481904e+01  7.2694175325207098e+01  7.2690500010471524e+01  7.2685114998710461e+01  7.2694323555850630e+01  7.2748114663768561e+01  7.2891170959938307e+01  7.3183363714322951e+01  7.3687190567146317e+01  7.4471363311434757e+01  7.5565664784652071e+01  7.7001542094727171e+01  7.8742960648275883e+01  8.0729770123742043e+01  8.2830018885170233e+01  8.4931337034434762e+01  8.6935727635255986e+01  8.8806121564914449e+01  9.0557918889664293e+01  9.2251779736972765e+01  9.3906270182182979e+01  9.5526917529820494e+01  9.7069581308402761e+01  9.8492407677555349e+01  9.9720444870217776e+01  1.0064892078998773e+02  1.0124298114019052e+02  5.1308670483174950e+01  5.2408938203939798e+01  5.3641908498640632e+01  5.4965359305233775e+01  5.6361395165438651e+01  5.7852676487503544e+01  5.9485280647825562e+01  6.1294233861639761e+01  6.3311748018660424e+01  6.5478008822603101e+01  6.7764425148496855e+01  7.0128101667714517e+01  7.2479790549560391e+01  7.4791781492085832e+01  7.7037886248786492e+01  7.9205641665609022e+01  8.1266416531980823e+01  8.3211346594196087e+01  8.4977417618610119e+01  8.6509454710645272e+01  8.7679689421181067e+01  8.8440645793828736e+01  8.8703199018647894e+01  8.8440967662073021e+01  8.7628679930457551e+01  8.6337191283734953e+01  8.4635733471192580e+01  8.2642443578577598e+01  8.0515386141710707e+01  7.8377957013757822e+01  7.6316876648942241e+01  7.4302965312186458e+01  7.2368787498281193e+01  7.0460413593402663e+01  6.8537239103578202e+01  6.6610121895661678e+01  6.4657043639585879e+01  6.2757185175081027e+01  6.0905166640603071e+01  5.9158234280480734e+01  5.7503584411813904e+01  5.5953721066404185e+01  5.4503835948668325e+01  5.3182881791786919e+01  5.1985563637944949e+01  5.0962052802745760e+01  5.0157785769769610e+01  4.9604198741232217e+01  4.9343973210496195e+01  4.9395478498611219e+01  4.9760190398750197e+01  5.0412326362541044e+01  1.0382062685555775e+02  5.3274284034276846e+01  4.1626975106937955e+01  7.2725606454233770e+01  1.0536843285721571e+02  5.2577145084253985e+01  4.0901382498106649e+01  7.2814519802355164e+01  5.7085135373030447e+01  7.6966604519749353e+01  9.1701104903954842e+01  5.8791295997263191e+01  4.7581707179455734e+01  7.1666763745423125e+01  1.0225782327153783e+02  8.1804456414681241e+01  4.2366976463242942e+01  6.3627130251444157e+01  5.3937496264698446e+01  4.9797502718760093e+01  7.2683771043321215e+01  7.1668314708619604e+01  4.5294032356162873e+01  7.2197804171572614e+01  1.0086778257947432e+02  6.1046197854628375e+01  7.2553899766335661e+01  6.7044035484280897e+01  8.7858019540633208e+01  5.4609672380632119e+01  5.3636512886751746e+01  9.6565473992001856e+01  4.3055698574602729e+01  5.6613541952564503e+01  4.8683441589269528e+01  7.7636477796682897e+01  5.6892467719928263e+01  7.4886428296917359e+01  8.9589033987229087e+01  5.6687830334646478e+01  6.0437493854257440e+01  4.8885791786990090e+01  7.9708179281909779e+01  7.1022225001388648e+01  5.6582218444832741e+01  9.0990521201838405e+01  7.2646403773278905e+01  5.3762551753214616e+01  1.0278009401948938e+02  4.2173003607414152e+01  7.8233664517835834e+01  4.8096146836749341e+01  6.0796724342154079e+01  5.8993929275170721e+01  7.2884470573214500e+01  9.3883955717452736e+01  7.0181119757596733e+01  8.9299522908949868e+01  5.5066904221059801e+01  7.7810367340282710e+01  5.4737026911334723e+01  5.0520815287837522e+01  8.6728738039244377e+01  7.9218244225352549e+01  5.6358433112935742e+01  5.6453478140225506e+01  9.3872432347995115e+01  6.9401174570114094e+01  7.4265692681114018e+01  4.7344179026067337e+01  5.6959952300329832e+01  6.7529542723527101e+01  8.4687486927996574e+01  8.5587804435259514e+01  5.1464075974929258e+01  5.2034446934473493e+01  6.6854766347561664e+01  4.6589044299597454e+01  5.8330382623528706e+01  5.2562385276143047e+01  7.7874673328469768e+01  8.3171900965949220e+01  6.3985976953712353e+01  6.4419592246235453e+01  7.4974915792136414e+01  4.4037578358875869e+01  4.4124124329388366e+01  5.8644839281809482e+01  9.9281285747656810e+01  7.2665993487309464e+01  5.5193796505410077e+01  7.2242051805485247e+01  9.8453285538029490e+01  7.2562473389515333e+01  5.4280718452300675e+01  5.5622553541505937e+01  4.2825519187886336e+01  1.0130810589597613e+02  5.3196171658648488e+01  4.1479298650427999e+01  1.0414538129708441e+02  7.2724767271471194e+01  5.6749100151606832e+01  4.6450184106499947e+01  7.6090241086914801e+01  4.8610436256107327e+01  5.3493751312741381e+01  6.7666479740925240e+01  9.6248183279433817e+01  5.4430642990404806e+01  8.7514025878089058e+01  7.2775901860977143e+01  7.2498305872711015e+01  1.0143531551595272e+02  4.2866414361185065e+01  7.4232822696079452e+01  9.1600009343198906e+01  5.6233542210891983e+01  4.5519173422750256e+01  9.0153115871277961e+01  7.2535481922774707e+01  6.3562967757346271e+01  6.3645926826334744e+01  6.1407520045198623e+01  8.1090497738510763e+01  5.0316244948015424e+01  8.2637340116827872e+01  4.9837454692103421e+01  5.7783921021946753e+01  6.0452648975368554e+01  7.1339775052460567e+01  6.0947134405181153e+01  4.5479084640239329e+01  7.0473278439440776e+01  7.1564148909257952e+01  8.8194376392497958e+01  6.7358153839423551e+01  9.6017077447433152e+01  5.6191488952320725e+01  5.3849493760951511e+01  7.9136214879224397e+01  1.0212705288615894e+02  5.6887245376966511e+01  5.4054293200785274e+01  7.2644593584224566e+01  5.5770621677602733e+01  7.2695221557686054e+01  5.3630372087135186e+01  5.7646241489580028e+01  4.2004789749449330e+01  7.8880411815902917e+01  5.8450989825895633e+01  5.8392311921258589e+01  7.7951603386472954e+01  1.0300283795595129e+02  4.9263672928726180e+01  4.9312076851299970e+01  4.8012485382545890e+01  7.6952422345512289e+01  8.9538895245678134e+01  7.3276631846922996e+01  8.9042950176868572e+01  7.2643844387693520e+01  7.8194436575210162e+01  7.7259483985412700e+01  5.5622901886126151e+01  5.6476170296472439e+01  5.5749965907702943e+01  5.6237315460687384e+01  5.7048368505853070e+01  4.2017462750371266e+01  7.2688899362322218e+01  4.1242033127172739e+01  5.4157714814116837e+01  1.0168820347997185e+02  5.2344930243314657e+01  1.0587259205975698e+02  5.2906152372825531e+01  5.2783677109763104e+01  1.0464416930194785e+02  4.0665435308813571e+01  7.2846656242217875e+01  4.2638847091682344e+01  7.2770305558667644e+01  7.2783548261848566e+01  8.8043499615032204e+01  7.6624321378143676e+01  7.1902021564020032e+01  8.9680094599942535e+01  5.7602925833094481e+01  4.3412852188244536e+01  6.9357470127825962e+01  9.3423633261072780e+01  4.7092476950684116e+01  4.8159327587262744e+01  5.8300470992662163e+01  4.2465926617435329e+01  5.4959740201538267e+01  7.5922947603086982e+01  7.3138589484912245e+01  9.1381967794894976e+01  9.8441663092534327e+01  6.9366786125876857e+01  7.6098069199405771e+01  5.9095147448396908e+01  5.7693056402028986e+01  5.5499288575422881e+01  4.9412278324825579e+01  4.9610030030703768e+01  4.1098354615822743e+01  1.0494862820681722e+02  1.0007318508739753e+02  4.6464476998859723e+01  7.0281323140163991e+01  9.3383839997554105e+01  5.5737600889125105e+01  7.3900703920775854e+01  4.8823623133540607e+01  5.4654801745315297e+01  6.0221352567627193e+01  8.3634933858670777e+01  5.0827121567547671e+01  6.2286749750669934e+01  1.0562462615379475e+02  5.2512894157810699e+01  4.0782336294460492e+01  7.2830057600271957e+01  6.3110155898696142e+01  5.0005339121210902e+01  8.0098477568310358e+01  7.2654342032897389e+01  7.2697300580612904e+01  5.3581427261048489e+01  5.3504783202350595e+01  6.5448131439958900e+01  1.0257306595676931e+02  1.0185939169772124e+02  1.0330652048839779e+02  8.1052710484152925e+01  8.0646498240199250e+01  1.0033414198257059e+02  5.8411975835964761e+01  7.2724040300052835e+01  7.2280309559479434e+01  5.5122736004275929e+01  6.2173670071576872e+01  5.9484027112388027e+01  8.4478085754945496e+01  5.1368306574045917e+01  4.1798981732842627e+01  4.9227182480143220e+01  4.8301135538405411e+01  7.2555471279720905e+01  5.6277791613380337e+01  5.6406397537419473e+01  7.7967346900430002e+01  7.7748056851234978e+01  5.3597695036607128e+01  5.4285192411701438e+01  8.4978466691080172e+01  8.5974210266796874e+01  6.2228219013190426e+01  4.4695389846670764e+01  5.6553572654360778e+01  6.7139484698626845e+01  8.9294804757317721e+01  6.5756843255129624e+01  9.4982317080739080e+01  6.8801344954516694e+01  7.0430202083432022e+01  7.1799901562713472e+01  9.0196955378475948e+01  9.2149605541142421e+01  7.0968305842940396e+01  5.4321825445285832e+01  5.5043746327985637e+01  9.0423849600531028e+01  7.2457705492428090e+01  8.8899622398194353e+01  9.4608727669935149e+01  6.9613923017645618e+01  7.3687110637070077e+01  5.6043887642888087e+01  5.1527352977082174e+01  5.1674290387249727e+01  8.1590917194052167e+01  8.1205004326100422e+01  9.7897762783253953e+01  4.9083803368404951e+01  4.8694098697185943e+01  4.7854844843691680e+01  8.3145895076004592e+01  5.0857687573045418e+01  5.6953538704495216e+01  8.2851329008258119e+01  5.8879242113799528e+01  5.9778888477630147e+01  5.9695227005834745e+01  7.8147728235900317e+01  7.7568786377818881e+01  6.1863447240537212e+01  6.5203715912243311e+01  4.2573721660794504e+01  9.9964767927063832e+01  5.6511473199050123e+01  7.4653955487149886e+01  4.4275929267070076e+01  4.3508963369093372e+01  5.7761987508958676e+01  5.6814271996118826e+01  5.6026814047598194e+01  7.1902285218244458e+01  8.5788183101981545e+01  8.6645895039627547e+01  5.2311440639553979e+01  5.2708378245190595e+01  6.3114764393906746e+01  7.2342501675973736e+01  7.7046291103094092e+01  6.9700058877462169e+01  5.5161441814164533e+01  4.9369092642710839e+01  5.4231215588395152e+01  7.2590573622692645e+01  7.3733574895398860e+01  4.0582954036923475e+01  5.2262953130308176e+01  1.0605027844809764e+02  7.2858352634609929e+01  7.8363685611083369e+01  6.8928199794581019e+01  8.6318937728760247e+01  6.0193959465458903e+01  5.0484231240747704e+01  5.5733901995349804e+01  7.7520131349929912e+01  7.8088106688345221e+01  8.8347212795081333e+01  5.7936204612686517e+01  4.4839945538201981e+01  4.4362160058036942e+01  4.3658709620892623e+01  4.4800031725481197e+01  5.2740955250786335e+01  8.6631700741878404e+01  7.5594900896694142e+01  5.6377424683754114e+01  5.6285303868352862e+01  5.6575866803407358e+01  5.2181538466375528e+01  5.0134845119602865e+01  7.9147239357303746e+01  7.8597490859701423e+01  9.7366464447302292e+01  8.8486967228155549e+01  6.2723538750011684e+01  9.9735456637065099e+01  7.2485485530259794e+01  6.5684679819022847e+01  5.5909614131996946e+01  1.0191299760345801e+02  7.9904268379073969e+01  4.7366454945686513e+01  4.7359606717170216e+01  4.2390476891065695e+01  7.1706740309303200e+01  9.5366530693370137e+01  6.8248082563463313e+01  7.2061511269072767e+01  7.2362017841367887e+01  7.2443401945331601e+01  8.3890949909847592e+01  5.2999026459328526e+01  1.0340081103108788e+02  4.3347735725177763e+01  8.7824071153457041e+01  6.5636177409009449e+01  7.2679443755961017e+01  5.3765683253798180e+01  4.8062189276417357e+01  6.2206186881621150e+01  8.8209858267240051e+01  5.4193787206203780e+01  9.3091222541763969e+01  5.4654334617514934e+01  4.2552921334476615e+01  7.2669517759110988e+01  6.5566618155498531e+01  8.6640025506830796e+01  5.4833291182713140e+01  7.7733375551004073e+01  5.2350133009280540e+01  7.2849851714295923e+01  1.0592483284358835e+02  4.0640456220566321e+01  7.0141747671608059e+01  5.7413449503453705e+01  4.3977200609031861e+01  5.6243674471013122e+01  7.2513476759364593e+01  6.5034052950353953e+01  5.4727855042503769e+01  5.3053098276902645e+01  1.0075202415642630e+02  7.3110198874549937e+01  7.2565740735201544e+01  7.1405403958794665e+01  5.7413416737838148e+01  6.4274776836733622e+01  6.6203648115606470e+01  7.2680527400663649e+01  5.4408181229977146e+01  7.2671955842880593e+01  5.6108240277938464e+01  7.5572019840369350e+01  9.1793021985598727e+01  7.5253512408442461e+01  4.6187145530458835e+01  9.2657640757865892e+01  5.6916473612704742e+01  4.5818576633563765e+01  4.7308056224265428e+01  4.7158457825686888e+01  6.0139387733136886e+01  5.6810821191147134e+01  4.2786712117734332e+01  7.6935628864589575e+01  9.4971610384569502e+01  6.7960470242942350e+01  5.7197819467997910e+01  4.9221842363081876e+01  7.4681835590768955e+01  7.2415405055157507e+01  4.2188981342644048e+01  9.0891629713038213e+01  7.1213627641220484e+01  7.7768445488374255e+01  5.6434268242125277e+01  7.7981697357748089e+01  7.6301993839608429e+01  9.6877189390634754e+01  5.4037535627038494e+01  7.2589047769389708e+01  7.2622953922549698e+01  5.4360537481854955e+01  5.4062257028652731e+01  5.4045009594610669e+01  4.2416131397941712e+01  1.0273735269533078e+02  6.9125135308981982e+01  9.0912056329915671e+01  5.6216259045540220e+01  7.6594900470655674e+01  7.3261782910117546e+01  6.7508868094547822e+01  8.0052608752004829e+01  8.9040822559714655e+01  9.2580490877776640e+01  5.5628615503907227e+01  7.2747295999751799e+01  5.3119145782873325e+01  4.5104904398946502e+01  7.3303380617940377e+01  5.9648249762415503e+01  9.9173913815197665e+01  5.5114393093677663e+01  9.7607127997466250e+01  9.8661873622862359e+01  4.3088901290571393e+01  4.2770928883905917e+01  1.0141949573720539e+02  1.0149508997555981e+02  8.4838392791054318e+01  6.0172760448254785e+01  5.5642839062580919e+01  5.6591483990496528e+01  6.0009172149651135e+01  5.7674522145706248e+01  5.9595966731997997e+01  4.1939713723525458e+01  5.5634065705667737e+01  6.2584010935223496e+01  8.9450667210795132e+01  8.5160803077134773e+01  5.6930503196994387e+01  5.3630284744660294e+01  5.5970464957821001e+01  5.9139105933017660e+01  4.8450559977409576e+01  8.8444685839797685e+01  7.8695057112054798e+01  7.2664219464028776e+01  7.4709006570250281e+01  7.4235756030301815e+01  9.0709250553773103e+01  4.1430907972663690e+01  1.0423794678788025e+02  1.0386841028367675e+02  1.0390605823173038e+02  4.1678760873885658e+01  4.1289460103005737e+01  4.5289440729653023e+01  7.1065619861801466e+01  4.6302498844587475e+01  7.7453937495384949e+01  4.8636528837744677e+01  5.3474784531799820e+01  5.3263151433759880e+01  7.2690236102465121e+01  7.2746577833817469e+01  7.2723881469982317e+01  5.6195050444078696e+01  1.0455236930617296e+02  7.2759650165470703e+01  5.2972308229861291e+01  4.3338740273262125e+01  7.5332940590541369e+01  5.7582534266504183e+01  7.2700625725861471e+01  9.0385518158447411e+01  7.3637180241821838e+01  5.4229228889385524e+01  7.2692451306027579e+01  5.0782271162610371e+01  4.6853455148842535e+01  4.7006556311890662e+01  4.5746629760986700e+01  9.4500029574704996e+01  5.6878055851575851e+01  1.0105429507588917e+02  4.6172725559453838e+01  7.2414221176225809e+01  5.4620721270197620e+01  7.5596863079212696e+01  7.5203776972114980e+01  4.1550458953600831e+01  5.8216008059841165e+01  1.0097139736352217e+02  4.7827217827694362e+01  5.2279962449911622e+01  5.1264858045216357e+01  8.6984713247540000e+01  6.8599497493120765e+01  5.2646778173430341e+01  5.7826925860174853e+01  5.4869995609885997e+01  5.7074754520099567e+01  9.5150487599114598e+01  8.3347382442002896e+01  6.6436370938732850e+01  5.8625340224189706e+01  5.6096408413495212e+01  5.8417456240849120e+01  5.9470781819518059e+01  5.6647826570548659e+01  7.1534182864527978e+01  7.2887876173805608e+01  6.7231324929947576e+01  5.4229662705236706e+01  7.2687061098015107e+01  5.4936044624605721e+01  9.1015825445498166e+01  7.2290953555907606e+01  7.8257628466527294e+01  7.8083716397907395e+01  7.9345029061309930e+01  5.7025847408080317e+01  6.1465174065318578e+01  4.8879223452941872e+01  4.9090963395698189e+01  4.8426186817153862e+01  6.1740679871445678e+01  4.2749679691128527e+01  5.4055793184822313e+01  6.4234322279823587e+01  1.0114621773301336e+02  1.0218138772805885e+02  9.7281138848488624e+01  6.3357977490521485e+01  6.8826480817961638e+01  6.7561005605217190e+01  5.6366939785816555e+01  5.3325439580165792e+01  9.5839468593364089e+01  8.7228599960310135e+01  4.2875227608480614e+01  7.9637818323447846e+01  8.1466048862088385e+01  5.6106367196330588e+01  9.4379629890682267e+01  5.0680137725688240e+01  8.1928604364377790e+01  5.0141157861303810e+01  8.2210733444815801e+01  6.0955148739543397e+01  6.1916723733847526e+01  5.4287073674225084e+01  8.8141505979298159e+01  5.3814500097853617e+01  4.9977057149570662e+01  5.8476423072684064e+01  5.7298048379118924e+01  8.8480259738638779e+01  5.7099189357783402e+01  6.3661427900825160e+01  8.0912984168138152e+01  6.3964084950581011e+01  5.1656744316988920e+01  8.1694492856836959e+01  4.1288364619670915e+01  1.0440212492039137e+02  7.928