<?xml version="1.0"?>
<VTKFile type="UnstructuredGrid"  version="0.1"  >
<UnstructuredGrid>
<Piece  NumberOfPoints="2331" NumberOfCells="4248">
<Points>
<DataArray  type="Float64"  NumberOfComponents="3"  format="ascii">0 0.3 0  0 0 0  0.04999999999999999 0 0  0.0514582251803892 0.02410733605106462 0  0.0558116365147896 0.04786313285751154 0  0.06299675146291706 0.07092097740850717 0  0.07290879486935808 0.09294463440875382 0  0.08540322682126872 0.1136129493462312 0  0.1002978503657798 0.132624531648159 0  0.117375468351841 0.1497021496342203 0  0.1363870506537689 0.1645967731787313 0  0.1570553655912463 0.177091205130642 0  0.1790790225914929 0.187003248537083 0  0.2021368671424885 0.1941883634852104 0  0.2258926639489354 0.1985417748196108 0  0.25 0.2 0  0.2741073360510646 0.1985417748196108 0  0.2978631328575116 0.1941883634852104 0  0.3209209774085071 0.187003248537083 0  0.3429446344087537 0.177091205130642 0  0.3636129493462312 0.1645967731787313 0  0.3826245316481591 0.1497021496342202 0  0.3997021496342202 0.132624531648159 0  0.4145967731787313 0.1136129493462312 0  0.427091205130642 0.09294463440875371 0  0.4370032485370829 0.07092097740850713 0  0.4441883634852104 0.04786313285751155 0  0.4485417748196108 0.02410733605106461 0  0.45 0 0  0.55 0 0  0.5514582251803892 0.02410733605106462 0  0.5558116365147896 0.04786313285751154 0  0.5629967514629171 0.07092097740850717 0  0.5729087948693581 0.09294463440875382 0  0.5854032268212688 0.1136129493462312 0  0.6002978503657798 0.132624531648159 0  0.617375468351841 0.1497021496342203 0  0.6363870506537689 0.1645967731787313 0  0.6570553655912463 0.177091205130642 0  0.6790790225914929 0.187003248537083 0  0.7021368671424885 0.1941883634852104 0  0.7258926639489354 0.1985417748196108 0  0.75 0.2 0  0.7741073360510646 0.1985417748196108 0  0.7978631328575116 0.1941883634852104 0  0.8209209774085071 0.187003248537083 0  0.8429446344087537 0.177091205130642 0  0.8636129493462312 0.1645967731787313 0  0.8826245316481591 0.1497021496342202 0  0.8997021496342202 0.132624531648159 0  0.9145967731787312 0.1136129493462312 0  0.927091205130642 0.09294463440875371 0  0.9370032485370829 0.07092097740850713 0  0.9441883634852104 0.04786313285751155 0  0.9485417748196108 0.02410733605106461 0  0.95 0 0  1 0 0  1 0.3 0  0.9758926639489353 0.3014582251803892 0  0.9521368671424885 0.3058116365147896 0  0.9290790225914928 0.3129967514629171 0  0.9070553655912461 0.3229087948693581 0  0.8863870506537688 0.3354032268212687 0  0.867375468351841 0.3502978503657798 0  0.8502978503657798 0.367375468351841 0  0.8354032268212687 0.3863870506537689 0  0.822908794869358 0.4070553655912464 0  0.8129967514629171 0.4290790225914929 0  0.8058116365147896 0.4521368671424885 0  0.8014582251803892 0.4758926639489354 0  0.8 0.4999999999999999 0  0.8014582251803892 0.5241073360510646 0  0.8058116365147896 0.5478631328575115 0  0.8129967514629171 0.5709209774085071 0  0.8229087948693581 0.5929446344087538 0  0.8354032268212688 0.6136129493462312 0  0.8502978503657798 0.632624531648159 0  0.867375468351841 0.6497021496342202 0  0.8863870506537689 0.6645967731787313 0  0.9070553655912463 0.677091205130642 0  0.9290790225914929 0.6870032485370829 0  0.9521368671424885 0.6941883634852104 0  0.9758926639489354 0.6985417748196108 0  1 0.7 0  1 1 0  0.95 1 0  0.9485417748196108 0.9758926639489353 0  0.9441883634852104 0.9521368671424885 0  0.9370032485370829 0.9290790225914928 0  0.927091205130642 0.9070553655912463 0  0.9145967731787312 0.8863870506537688 0  0.8997021496342201 0.8673754683518409 0  0.882624531648159 0.8502978503657798 0  0.863612949346231 0.8354032268212686 0  0.8429446344087537 0.822908794869358 0  0.8209209774085071 0.8129967514629171 0  0.7978631328575114 0.8058116365147896 0  0.7741073360510646 0.8014582251803892 0  0.75 0.8 0  0.7258926639489353 0.8014582251803892 0  0.7021368671424885 0.8058116365147896 0  0.6790790225914928 0.8129967514629171 0  0.6570553655912461 0.8229087948693581 0  0.6363870506537688 0.8354032268212688 0  0.617375468351841 0.8502978503657798 0  0.6002978503657798 0.867375468351841 0  0.5854032268212687 0.8863870506537689 0  0.572908794869358 0.9070553655912463 0  0.5629967514629171 0.9290790225914929 0  0.5558116365147896 0.9521368671424885 0  0.5514582251803892 0.9758926639489355 0  0.55 0.9999999999999999 0  0.45 0.9999999999999999 0  0.4485417748196108 0.9758926639489353 0  0.4441883634852104 0.9521368671424885 0  0.4370032485370829 0.9290790225914928 0  0.427091205130642 0.9070553655912463 0  0.4145967731787313 0.8863870506537688 0  0.3997021496342201 0.8673754683518409 0  0.382624531648159 0.8502978503657798 0  0.363612949346231 0.8354032268212686 0  0.3429446344087536 0.822908794869358 0  0.3209209774085071 0.8129967514629171 0  0.2978631328575115 0.8058116365147896 0  0.2741073360510646 0.8014582251803892 0  0.25 0.8 0  0.2258926639489353 0.8014582251803892 0  0.2021368671424885 0.8058116365147896 0  0.1790790225914928 0.8129967514629171 0  0.1570553655912462 0.8229087948693581 0  0.1363870506537688 0.8354032268212688 0  0.117375468351841 0.8502978503657798 0  0.1002978503657797 0.867375468351841 0  0.08540322682126869 0.8863870506537689 0  0.07290879486935797 0.9070553655912463 0  0.06299675146291703 0.9290790225914929 0  0.05581163651478957 0.9521368671424885 0  0.0514582251803892 0.9758926639489355 0  0.04999999999999999 0.9999999999999999 0  0 1 0  -0 0.7000000000000001 0  0.0241073360510646 0.6985417748196108 0  0.04786313285751161 0.6941883634852104 0  0.07092097740850711 0.6870032485370829 0  0.09294463440875372 0.677091205130642 0  0.1136129493462312 0.6645967731787312 0  0.1326245316481591 0.6497021496342202 0  0.1497021496342202 0.632624531648159 0  0.1645967731787313 0.6136129493462312 0  0.177091205130642 0.5929446344087537 0  0.187003248537083 0.5709209774085071 0  0.1941883634852104 0.5478631328575115 0  0.1985417748196108 0.5241073360510646 0  0.2 0.5 0  0.1985417748196108 0.4758926639489353 0  0.1941883634852104 0.4521368671424885 0  0.1870032485370829 0.4290790225914928 0  0.177091205130642 0.4070553655912463 0  0.1645967731787313 0.3863870506537688 0  0.1497021496342202 0.3673754683518409 0  0.132624531648159 0.3502978503657798 0  0.113612949346231 0.3354032268212686 0  0.09294463440875361 0.322908794869358 0  0.07092097740850711 0.3129967514629171 0  0.04786313285751148 0.3058116365147896 0  0.02410733605106464 0.3014582251803892 0  0.6985417748196108 0.5241073360510646 0  0.7 0.5 0  0.6985417748196108 0.4758926639489353 0  0.6941883634852104 0.4521368671424885 0  0.6870032485370829 0.4290790225914928 0  0.677091205130642 0.4070553655912463 0  0.6645967731787312 0.3863870506537688 0  0.6497021496342201 0.3673754683518409 0  0.632624531648159 0.3502978503657798 0  0.613612949346231 0.3354032268212686 0  0.5929446344087537 0.322908794869358 0  0.5709209774085071 0.3129967514629171 0  0.5478631328575114 0.3058116365147896 0  0.5241073360510646 0.3014582251803892 0  0.4999999999999999 0.3 0  0.4758926639489353 0.3014582251803892 0  0.4521368671424885 0.3058116365147896 0  0.4290790225914928 0.3129967514629171 0  0.4070553655912462 0.3229087948693581 0  0.3863870506537688 0.3354032268212687 0  0.367375468351841 0.3502978503657798 0  0.3502978503657798 0.367375468351841 0  0.3354032268212687 0.3863870506537689 0  0.322908794869358 0.4070553655912464 0  0.3129967514629171 0.4290790225914929 0  0.3058116365147896 0.4521368671424885 0  0.3014582251803892 0.4758926639489354 0  0.3 0.4999999999999999 0  0.3014582251803892 0.5241073360510646 0  0.3058116365147896 0.5478631328575115 0  0.3129967514629171 0.5709209774085071 0  0.3229087948693581 0.5929446344087538 0  0.3354032268212687 0.6136129493462312 0  0.3502978503657798 0.632624531648159 0  0.367375468351841 0.6497021496342202 0  0.3863870506537689 0.6645967731787313 0  0.4070553655912463 0.677091205130642 0  0.4290790225914929 0.6870032485370829 0  0.4521368671424885 0.6941883634852104 0  0.4758926639489354 0.6985417748196108 0  0.4999999999999999 0.7 0  0.5241073360510646 0.6985417748196108 0  0.5478631328575116 0.6941883634852104 0  0.5709209774085071 0.6870032485370829 0  0.5929446344087537 0.677091205130642 0  0.6136129493462312 0.6645967731787312 0  0.6326245316481591 0.6497021496342202 0  0.6497021496342202 0.632624531648159 0  0.6645967731787312 0.6136129493462312 0  0.677091205130642 0.5929446344087537 0  0.6870032485370829 0.5709209774085071 0  0.6941883634852104 0.5478631328575115 0  0 0.15 0  1 0.15 0  1 0.85 0  0 0.8500000000000001 0  0 0.075 0  1 0.075 0  1 0.925 0  0 0.925 0  0.5 0.8127595604293815 0  0.5069440078039168 0.190422209288238 0  0.25 0.3127595604293815 0  0.756944007803917 0.3095777907117619 0  0.756944007803917 0.6904222092882382 0  0.25 0.6872404395706185 0  0 0.225 0  0.4255768646051012 0.2241073097134061 0  1 0.7749999999999999 0  0.6773391559270888 0.2766774022734219 0  1 0.225 0  0.6755768646051011 0.7241073097134062 0  0 0.7750000000000001 0  0.5818971135297744 0.2287925518358889 0  0.8318971135297746 0.728792551835889 0  0.1659156081861886 0.7301636995921477 0  0.08376842746533225 0.2299656297760495 0  0.4236002201977974 0.7746535834185855 0  0.0840843918138115 0.7698363004078523 0  0.3340843918138113 0.7301636995921477 0  0.3340843918138114 0.2698363004078523 0  0.9159156081861887 0.2301636995921477 0  0.5840843918138116 0.7698363004078522 0  0.1659156081861887 0.2698363004078523 0  0.9162315725346678 0.7700343702239506 0  0.8340843918138114 0.2698363004078523 0  0.75 0.6146645247768686 0  0.5 0.1125158665330878 0  0.75 0.3874841334669124 0  0.2504983345544904 0.6122915843562002 0  0.2504983345544902 0.3877084156437999 0  0.5 0.8879783056303169 0  0.7005361650220154 0.3333055947145943 0  0.70416808765371 0.6599554817221275 0  0.449930214263529 0.1678187287522426 0  0.2247310981387008 0.7415600637745463 0  0.5155081196221678 0.7563797802146907 0  0.2752689018612993 0.2584399362254537 0  0.05605196690611226 0.8246131191226815 0  0.9439480330938878 0.1
[...]
<PointData  Scalars="Temperature"> 
<DataArray  type="Float64"  Name="Temperature"  format="ascii">9.0957085348629192e+01  9.3959611502659044e+01  9.3954642599762082e+01  9.3886134423975932e+01  9.3694571191686251e+01  9.3396691752877487e+01  9.2998297362752581e+01  9.2503514361177011e+01  9.1917009219375188e+01  9.1230044824415543e+01  9.0422993607121228e+01  8.9504261157705884e+01  8.8499339336989038e+01  8.7428827611534743e+01  8.6312084805126986e+01  8.5175406718604080e+01  8.4020761595867171e+01  8.2843537718598157e+01  8.1667542460807624e+01  8.0488300569414150e+01  7.9364723766927938e+01  7.8336374296343493e+01  7.7445736169745530e+01  7.6750722104553986e+01  7.6246706580045341e+01  7.5927283081633021e+01  7.5745210483625172e+01  7.5664497666640543e+01  7.5643012977780600e+01  7.5435398641087247e+01  7.5383144084500401e+01  7.5218615892201555e+01  7.4904608687932381e+01  7.4409000199641511e+01  7.3683969372364345e+01  7.2725572001867363e+01  7.1550979514143293e+01  7.0199501991756634e+01  6.8731676743647256e+01  6.7230779024944141e+01  6.5778382421041371e+01  6.4441412617068465e+01  6.3257117961148921e+01  6.2236065841576391e+01  6.1370774027240635e+01  6.0654048761850255e+01  6.0052244929452577e+01  5.9553215074351975e+01  5.9143677413962124e+01  5.8803412372201912e+01  5.8523880493530775e+01  5.8292548174220748e+01  5.8108137067105240e+01  5.7970750187294691e+01  5.7882418577771155e+01  5.7850881627026929e+01  5.7848325102574535e+01  5.9129175453879760e+01  5.9180612147580554e+01  5.9328059337749750e+01  5.9552084701629042e+01  5.9815156596950928e+01  6.0068648449054088e+01  6.0249662242894850e+01  6.0299184844273270e+01  6.0168669602493225e+01  5.9838884012270718e+01  5.9276325172911797e+01  5.8530669532078875e+01  5.7648213801467151e+01  5.6698788627349913e+01  5.5755319495724002e+01  5.4870250243594995e+01  5.4048788888260745e+01  5.3295884585301160e+01  5.2577220447080151e+01  5.1881417948552986e+01  5.1214913187868660e+01  5.0572032850853212e+01  4.9987860125595482e+01  4.9487822746499333e+01  4.9106779277574681e+01  4.8870863629532593e+01  4.8787989857178033e+01  4.6985997112079126e+01  4.6988768665435103e+01  4.7029480515631754e+01  4.7143711763471515e+01  4.7321651483525379e+01  4.7560891081807746e+01  4.7858959810561814e+01  4.8216590004859654e+01  4.8639574046731674e+01  4.9131669852615225e+01  4.9699620549128468e+01  5.0336207937361614e+01  5.1020995388929016e+01  5.1751525439560986e+01  5.2500480054035137e+01  5.3286071786409323e+01  5.4097758723614859e+01  5.4930718130428396e+01  5.5766396171071648e+01  5.6581567275999170e+01  5.7317407303800259e+01  5.7961073262248775e+01  5.8455230673187593e+01  5.8813878319429755e+01  5.9031030543243808e+01  5.9143555851529285e+01  5.9192887057598526e+01  5.9204549084079446e+01  5.9364573996136912e+01  5.9413730321047005e+01  5.9558869862869130e+01  5.9822596715046167e+01  6.0237040326605609e+01  6.0842196382082939e+01  6.1631465070975707e+01  6.2602961061879206e+01  6.3708160982579308e+01  6.4910413295124911e+01  6.6123738786291014e+01  6.7272809559289811e+01  6.8310601923916209e+01  6.9176549683987062e+01  6.9873683610570581e+01  7.0400381174550290e+01  7.0789222295294834e+01  7.1069151966341749e+01  7.1271018135957689e+01  7.1418656430320809e+01  7.1527738894800208e+01  7.1609117314945223e+01  7.1672579673232093e+01  7.1720410933308713e+01  7.1755608325665548e+01  7.1776964181382937e+01  7.1784991944144011e+01  7.1785257668825466e+01  7.1544310447535835e+01  7.1536352911422085e+01  7.1517160819151698e+01  7.1499658877901652e+01  7.1506674158205215e+01  7.1572740544025564e+01  7.1742558415703812e+01  7.2062859832048275e+01  7.2583632442121868e+01  7.3326653730826976e+01  7.4313817695718754e+01  7.5519002838111476e+01  7.6897852143087476e+01  7.8356633205895690e+01  7.9815010287260520e+01  8.1202897320086876e+01  8.2492338798350701e+01  8.3691777466554043e+01  8.4841765856180302e+01  8.5956165712010062e+01  8.7039763884796045e+01  8.8065299683476582e+01  8.9007225477208735e+01  8.9817823612957184e+01  9.0429412903452558e+01  9.0820238401084396e+01  5.5906892519674926e+01  5.6828427022026261e+01  5.7844498738608429e+01  5.8915365896360576e+01  6.0021309749136485e+01  6.1173014140215933e+01  6.2402014656267774e+01  6.3735464399862082e+01  6.5196973774072475e+01  6.6746828332554443e+01  6.8366297523784610e+01  7.0026826942375564e+01  7.1666198318349117e+01  7.3265095250838712e+01  7.4806083860314445e+01  7.6279732427414700e+01  7.7668128166956521e+01  7.8966826738992523e+01  8.0136336769851127e+01  8.1141365974383817e+01  8.1898706596500858e+01  8.2377666234750890e+01  8.2519542725616674e+01  8.2306866669371189e+01  8.1721202519518130e+01  8.0810124112790987e+01  7.9618947744067455e+01  7.8226869777554654e+01  7.6741117131909775e+01  7.5244923495925306e+01  7.3796072515348271e+01  7.2371159376293306e+01  7.0991988784946187e+01  6.9620301173186320e+01  6.8226740374647392e+01  6.6820834097109412e+01  6.5389186825187338e+01  6.3991234087770749e+01  6.2624385846884024e+01  6.1331924904484040e+01  6.0105301321035547e+01  5.8954443101820246e+01  5.7876890129890512e+01  5.6895546467908254e+01  5.6008578566309929e+01  5.5255407565288110e+01  5.4673369062739454e+01  5.4287606203539035e+01  5.4134004803031196e+01  5.4227960755677124e+01  5.4571110193228705e+01  5.5142936523804458e+01  9.2505671192984806e+01  5.8502992126152279e+01  4.7852401058537296e+01  7.1630105424498808e+01  9.3513898033115552e+01  5.8052997028510710e+01  4.7251400540552240e+01  7.1735455604451417e+01  5.9803500563464276e+01  7.4810590902514591e+01  8.4531847539669002e+01  6.2052551795065568e+01  5.2696168757999402e+01  7.0562035662608665e+01  9.1485299185924191e+01  7.8055310455056599e+01  4.8465344040818479e+01  6.5475378404145033e+01  5.8926075403327431e+01  5.4360440005823015e+01  7.1558341306071611e+01  7.1129688232268990e+01  5.0850217529566734e+01  7.1063766401084109e+01  9.0573983719346700e+01  6.2737059804918566e+01  7.1428929269087263e+01  6.7162733707963511e+01  8.2042700632246763e+01  5.9360949172357564e+01  5.7228509470049453e+01  8.7745202541744277e+01  4.9027849407543435e+01  6.0650082592697856e+01  5.3667665554252423e+01  7.5327795917697998e+01  6.0515847823019669e+01  7.2816687939180326e+01  8.3061553045076735e+01  5.9518570681585736e+01  6.3155731976030573e+01  5.3738079983031867e+01  7.6685095298997126e+01  7.0152572793791052e+01  5.9423546022744134e+01  8.4097220184220376e+01  7.1545619667264347e+01  5.8818820284934539e+01  9.1826153068633488e+01  4.8302890851333522e+01  7.5638422993478741e+01  5.3047396710654368e+01  6.3520480157397337e+01  6.1223401546108995e+01  7.1487509910295842e+01  8.5957835922692183e+01  6.9440733287475936e+01  8.2956958720920696e+01  5.8299980981267581e+01  7.5482276131928444e+01  5.8765049046903414e+01  5.5249883908666483e+01  8.1070675207185261e+01  7.5840749475533130e+01  5.9282904662753552e+01  5.9350911593042667e+01  8.5980204667236833e+01  6.8918519304916202e+01  7.2961830962530257e+01  5.2555842874622741e+01  6.0787734353767078e+01  6.8238897038633013e+01  7.9955457155597941e+01  8.0562721828983811e+01  5.5599073086296301e+01  5.6037079017633047e+01  6.7739117205295713e+01  5.1877183786059277e+01  6.1829917114128577e+01  5.6966901134024070e+01  7.5540225069590747e+01  7.8595178382753659e+01  6.4913391257730382e+01  6.5221775892823942e+01  7.3416041114054522e+01  4.9823731110196952e+01  4.9905123679330124e+01  6.0957291744663316e+01  8.9529890094635959e+01  7.1524064641814050e+01  5.9721911700192038e+01  7.1157552675585066e+01  8.8991554838684394e+01  7.1382103127528367e+01  5.9143583509716507e+01  6.0027329872478973e+01  4.8843050835081485e+01  9.0862743772088010e+01  5.8453531923399517e+01  4.7729485223948643e+01  9.2717169029595382e+01  7.1635079477607889e+01  6.0511807686520541e+01  5.1798336386168437e+01  7.4251171424585536e+01  5.3476927534807224e+01  5.7120792360062097e+01  6.7600934040826374e+01  8.7524994288603793e+01  5.9253843384008206e+01  8.1802550338420616e+01  7.1467688495277812e+01  7.1404300906683247e+01  9.0946426130808717e+01  4.8868547507877118e+01  7.2396773922048169e+01  8.4414361987455322e+01  5.9174476791631676e+01  5.1051477758080040e+01  8.3484866046443173e+01  7.1146257975258521e+01  6.5461747785140588e+01  6.5454610890216131e+01  6.3009507792831378e+01  7.7559480696707269e+01  5.4771466230906341e+01  7.8624649434053921e+01  5.4368988254996232e+01  6.0331048904431071e+01  6.2292685106017714e+01  7.0881674747486542e+01  6.3577173506212141e+01  5.0982300791808846e+01  7.0309725178056908e+01  7.0599177790142932e+01  8.2274035972512763e+01  6.7412912103195609e+01  8.7393754506947261e+01  6.0326917372660098e+01  5.7389292112380545e+01  7.6273854756612423e+01  9.1399390218890389e+01  6.0868363940932291e+01  5.9003187166739536e+01  7.1525183959693180e+01  5.8822295139236608e+01  7.1586443505684471e+01  5.8731100359435928e+01  6.1316478479668397e+01  4.8162325830661409e+01  7.6159556043433952e+01  6.1726896779457824e+01  6.1611662306884760e+01  7.5510966066342206e+01  9.1972121371170658e+01  5.4187037917340774e+01  5.4183897464303818e+01  5.3081442722515959e+01  7.4270279589146867e+01  8.3003516967047503e+01  7.1650524264119241e+01  8.2729612915933629e+01  7.1477772438929350e+01  7.5726024568470322e+01  7.5088805425992803e+01  5.9528492953697530e+01  6.0134763075248479e+01  5.8817058293662519e+01  5.9186450286061039e+01  5.9789347087392180e+01  4.8175768005890468e+01  7.1547005261403669e+01  4.7533612109630475e+01  5.9064341058955037e+01  9.1112474846457246e+01  5.7902633376935981e+01  9.3841942769727012e+01  5.8265727520265237e+01  5.8186755795745029e+01  9.3042343527300090e+01  4.7055805466533450e+01  7.1771966599535162e+01  4.8690604933544492e+01  7.1684403741222013e+01  7.1701063749608892e+01  8.2000784253670020e+01  7.4020899081858559e+01  7.0776135128322423e+01  8.3227943163089705e+01  6.0192641777191206e+01  4.9324857610690266e+01  6.8909619670366268e+01  8.5696213890999815e+01  5.2255561270036779e+01  5.3253324055506184e+01  6.0697827948789218e+01  4.8545961458174325e+01  5.8216055794865547e+01  7.4050665036778696e+01  7.1607854008964111e+01  8.4291670073099681e+01  8.8979998228078529e+01  6.9512128153647424e+01  7.4234749849996859e+01  6.2321259327012903e+01  6.1228155869604898e+01  5.8617060562749153e+01  5.4095976588382364e+01  5.4271847222742323e+01  4.7414456455648505e+01  9.3240555709669351e+01  9.0053662141467811e+01  5.1835577890519666e+01  6.9540107105730470e+01  8.5642905578329007e+01  6.0082569116592971e+01  7.2689538055850463e+01  5.3743064008513741e+01  5.9382048587180769e+01  6.2961400635459320e+01  7.9273946999400707e+01  5.5135958522533045e+01  6.3649999260576976e+01  9.3680602475068213e+01  5.8011442255848102e+01  4.7152698364481139e+01  7.1753301331492992e+01  6.4269774320569496e+01  5.4798313453332121e+01  7.6905841087469582e+01  7.1563127229369599e+01  7.1596183156835210e+01  5.8703581334441516e+01  5.8651412978097738e+01  6.5999475926692980e+01  9.1690608599904280e+01  9.1223968332685445e+01  9.2170208819440774e+01  7.7585528781305442e+01  7.7295918666724901e+01  9.0222380986800502e+01  6.0788653051045863e+01  7.1472161116773634e+01  7.1210277656887982e+01  5.9707677242183344e+01  6.4421208017863222e+01  6.2636596871927260e+01  7.9838508847621597e+01  5.5549347411836216e+01  4.7993992954756955e+01  5.4024646142761725e+01  5.3270541310692224e+01  7.1773041885946782e+01  5.9221132288543799e+01  6.0412455154636440e+01  7.5599466102331903e+01  7.5450050815100155e+01  5.7837381791566415e+01  5.8375872497405503e+01  7.9855847147432911e+01  8.0540129981221980e+01  6.4507136714991631e+01  5.0377518477101226e+01  5.9426587453677051e+01  6.7975354030389283e+01  8.2988051751220027e+01  6.6199507384045674e+01  8.6696806989018825e+01  6.8448544113789723e+01  6.9725176428862383e+01  7.0739714638639967e+01  8.3585929933743614e+01  8.4845994880729933e+01  7.0080502822266922e+01  5.7741049170778325e+01  5.8285459245674090e+01  8.3691203619628112e+01  7.1217940643699038e+01  8.2673346431606873e+01  8.6430834502104744e+01  6.9013872692496292e+01  7.2047414854303980e+01  5.9029108566854369e+01  5.6095520533865894e+01  5.6228916802888463e+01  7.7493160263652413e+01  7.7226753064976918e+01  8.8615729377369789e+01  5.3807154233912698e+01  5.3493646922668376e+01  5.2883069778016868e+01  7.8928186829921216e+01  5.5137213225648850e+01  5.9702129306628464e+01  7.8741597681772674e+01  6.1141438178447203e+01  6.1801669971210629e+01  6.2655952342466165e+01  7.5566807514982528e+01  7.5202819832306247e+01  6.4282484717813091e+01  6.6602535044566920e+01  4.8632561481283702e+01  8.9983615297975646e+01  6.0403546746767816e+01  7.3247263626328873e+01  5.0011776096373175e+01  4.9391315365571117e+01  6.1341918825523038e+01  6.0744910799404479e+01  6.0304176977571103e+01  7.0884804313916064e+01  8.0673694499110013e+01  8.1242937123389012e+01  5.6232281043347321e+01  5.6532565693495435e+01  6.4256843229116214e+01  7.1613040299511638e+01  7.4905293844588016e+01  6.9758067364109735e+01  5.9717226262583786e+01  5.4259841337375200e+01  5.9120358653223029e+01  7.1482442175044582e+01  7.2545974832233171e+01  4.6987399923920485e+01  5.7849525262859395e+01  9.3957522132773263e+01  7.1785213022097608e+01  7.5769393752055151e+01  6.9190089855590855e+01  8.1036516983838013e+01  6.2113406248145843e+01  5.4866340294083486e+01  6.0057930109844975e+01  7.5283287976388635e+01  7.5670867431892347e+01  8.2195959387610699e+01  6.1582089776717396e+01  5.0489083778304483e+01  5.0093361742115420e+01  4.9520888270728193e+01  5.0441780041266306e+01  5.6566032185007202e+01  8.1252263379670012e+01  7.3338295037537989e+01  5.9296317826679427e+01  5.9228383607756484e+01  5.9438954154987435e+01  5.6141195025568535e+01  5.4930208615391457e+01  7.5796765919481629e+01  7.5401649210829248e+01  8.8268655133488025e+01  8.2443820016108774e+01  6.3977131566671524e+01  8.9830310583589423e+01  7.1169379993350731e+01  6.6167005721498029e+01  5.9719876363293039e+01  9.1259499532967254e+01  7.6834961446203408e+01  5.2590729060521561e+01  5.2544210197731459e+01  4.8480060133308911e+01  7.0534735538736953e+01  8.6960459236083636e+01  6.8058124079364802e+01  7.0990728166911481e+01  7.1229321066451476e+01  7.1321649651316392e+01  7.9093995546801324e+01  5.7320747093074154e+01  9.2231375242567751e+01  4.9263500381525304e+01  8.1822363840816138e+01  6.6865638529108352e+01  7.1562852431485425e+01  5.8818092627601523e+01  5.3151776056164081e+01  6.4406919792236593e+01  8.2243543665054915e+01  5.7646816228240418e+01  8.5417139964824798e+01  5.8722244707899016e+01  4.8619016608444220e+01  7.1467823884382241e+01  6.6842121222740431e+01  8.1018530154730044e+01  5.9511863037464543e+01  7.5412606000989129e+01  5.7906011403053604e+01  7.1775625508643031e+01  9.3875921122967071e+01  4.7035083220186969e+01  6.9482842726991407e+01  6.0962481165981345e+01  4.9788514397893429e+01  6.0427343647638132e+01  7.1310804080714547e+01  6.6500279177339280e+01  5.9423337350042239e+01  5.6794399937647022e+01  9.0497536146248649e+01  7.1670832455473516e+01  7.1416512294556171e+01  7.0304972932866477e+01  6.1193525506632490e+01  6.5121017737697741e+01  6.6535465395082511e+01  7.1525289298442544e+01  5.9222216369382657e+01  7.1543043033840576e+01  5.9972658252032751e+01  7.3843425966229162e+01  8.4628700491884473e+01  7.3048964173856774e+01  5.1540119672996781e+01  8.5147269518094930e+01  5.9670088038193818e+01  5.1264305214404018e+01  5.2438001828584426e+01  5.2340940617018504e+01  6.3033525063234464e+01  5.9615617718773393e+01  4.8809295644221599e+01  7.4848877926672458e+01  8.6711448899090513e+01  6.7868334160655493e+01  5.9895154964425963e+01  5.4069862112263436e+01  7.2655716537020169e+01  7.1318100807141619e+01  4.8317394651468675e+01  8.4015600198786515e+01  7.0201278220441338e+01  7.5467726949507238e+01  5.9339384786655245e+01  7.5612962302084938e+01  7.4411670596228433e+01  8.7960363706372462e+01  5.9000103957888470e+01  7.1494600540370840e+01  7.1481070772621962e+01  5.9197540804151579e+01  5.9004612342667649e+01  5.8994766774699919e+01  4.8499210918545273e+01  9.1798588617820911e+01  6.9369179121752666e+01  8.3937268348718916e+01  5.9167254827750156e+01  7.4524666863687884e+01  7.2233242533298750e+01  6.8211717469971234e+01  7.6854863374501988e+01  8.2701740963972142e+01  8.5138325402298591e+01  5.9975911035512844e+01  7.1661970245073093e+01  5.8404191445574156e+01  5.0677368803668074e+01  7.1754421407026740e+01  6.1695598072260601e+01  8.9457772929436160e+01  5.9663637981321486e+01  8.8433558946187190e+01  8.9130028154439614e+01  4.9060130597922246e+01  4.8799360527894876e+01  9.0936115156980918e+01  9.0985339376901393e+01  8.0063432203713276e+01  6.2095704511625172e+01  5.9461748124948258e+01  6.0328476755134417e+01  6.1967443211040028e+01  6.0235846028360832e+01  6.2694748180441565e+01  4.8111025172664206e+01  5.8727380256054339e+01  6.3877988055607794e+01  8.3025386154115267e+01  7.9978984249499575e+01  6.0707847782192914e+01  5.7851277674247228e+01  5.8985906012725948e+01  6.1321109077225572e+01  5.3420548197890390e+01  8.2297911752867023e+01  7.6051607436384273e+01  7.1554921689216897e+01  7.2737873465482679e+01  7.2377241654669277e+01  8.3821573604002666e+01  4.7690042923373213e+01  9.2777690733616936e+01  9.2536738692781867e+01  9.2560946085225766e+01  4.7893488152124867e+01  4.7572310753037989e+01  5.0868216449757888e+01  7.0219572266023135e+01  5.1662844883921274e+01  7.4610342598914357e+01  5.3663845256297392e+01  5.8633429951939966e+01  5.8496149454681799e+01  7.1594728070771765e+01  7.1656273518193657e+01  7.1630239809443552e+01  5.9157275428051562e+01  9.2982354618820423e+01  7.1672949188415288e+01  5.8308601072433170e+01  4.9261735790718966e+01  7.3713590593511626e+01  6.0184072855822670e+01  7.1823155429272404e+01  8.3619986519755273e+01  7.1938535858835948e+01  5.9109003413324430e+01  7.1544651904205779e+01  5.5462493809654092e+01  5.2140517900965811e+01  5.2241079628234658e+01  5.1227126691845854e+01  8.6398390177490953e+01  5.9652784821587161e+01  9.0697182121713212e+01  5.1584748038917972e+01  7.1334012371577529e+01  5.9380727486002996e+01  7.3326291347629606e+01  7.3604023121907190e+01  4.7788826506957534e+01  6.0648819909259878e+01  9.0641588199997997e+01  5.2822506938538339e+01  5.7860543902383206e+01  5.5455760304727306e+01  8.1478661384495751e+01  6.8335225608781045e+01  5.7045936950144075e+01  6.0352273496986342e+01  5.8149927258631408e+01  6.0581288392311912e+01  8.6800025533182037e+01  7.8718382287284044e+01  6.6735100151746565e+01  6.1764019335468475e+01  6.0241780020757446e+01  6.1824873881961771e+01  6.2428749546043633e+01  5.9485584090871569e+01  7.0590968116846540e+01  7.1559773257541565e+01  6.7277079902824909e+01  5.9109863077992763e+01  7.1540405766475700e+01  5.9564971276204822e+01  8.4064426432621985e+01  7.0991956671101761e+01  7.5752152677852635e+01  7.5618517370694306e+01  7.6456557354137573e+01  6.0972358438244086e+01  6.3039172156313541e+01  5.3703509356449956e+01  5.3828857087132022e+01  5.3316329455115245e+01  6.4087711126201185e+01  4.8775069994033629e+01  5.9009472377171811e+01  6.5889320678695555e+01  9.0756874079567197e+01  9.1434639354555642e+01  8.8223094073302462e+01  6.5328650475288313e+01  6.8453962590406576e+01  6.7533165495380445e+01  6.0230991950119588e+01  5.6994365914303835e+01  8.7249696281972717e+01  8.1610683379754462e+01  4.8874080939502370e+01  7.6585025038578308e+01  7.7819738516845263e+01  6.0308227798533679e+01  8.6306311696951980e+01  5.5046152530176172e+01  7.8148369198525103e+01  5.4629419077150700e+01  7.8349457294202850e+01  6.2672653398803781e+01  6.3387710947543184e+01  5.7715884084798084e+01  8.2242638153910065e+01  5.7364278253666349e+01  5.4468741130115049e+01  6.1706690305547866e+01  6.0792236193486978e+01  8.2428360380042392e+01  5.9824742143635255e+01  6.5516682301600255e+01  7.7021674841892136e+01  6.5669998038937166e+01  5.6209620009274431e+01  7.7958033946726431e+01  4.7571840953883914e+01  9.2884629447116779e+01  7.643