<?xml version="1.0"?>
<VTKFile type="UnstructuredGrid"  version="0.1"  >
<UnstructuredGrid>
<Piece  NumberOfPoints="2331" NumberOfCells="4248">
<Points>
<DataArray  type="Float64"  NumberOfComponents="3"  format="ascii">0 0.3 0  0 0 0  0.04999999999999999 0 0  0.0514582251803892 0.02410733605106462 0  0.0558116365147896 0.04786313285751154 0  0.06299675146291706 0.07092097740850717 0  0.07290879486935808 0.09294463440875382 0  0.08540322682126872 0.1136129493462312 0  0.1002978503657798 0.132624531648159 0  0.117375468351841 0.1497021496342203 0  0.1363870506537689 0.1645967731787313 0  0.1570553655912463 0.177091205130642 0  0.1790790225914929 0.187003248537083 0  0.2021368671424885 0.1941883634852104 0  0.2258926639489354 0.1985417748196108 0  0.25 0.2 0  0.2741073360510646 0.1985417748196108 0  0.2978631328575116 0.1941883634852104 0  0.3209209774085071 0.187003248537083 0  0.3429446344087537 0.177091205130642 0  0.3636129493462312 0.1645967731787313 0  0.3826245316481591 0.1497021496342202 0  0.3997021496342202 0.132624531648159 0  0.4145967731787313 0.1136129493462312 0  0.427091205130642 0.09294463440875371 0  0.4370032485370829 0.07092097740850713 0  0.4441883634852104 0.04786313285751155 0  0.4485417748196108 0.02410733605106461 0  0.45 0 0  0.55 0 0  0.5514582251803892 0.02410733605106462 0  0.5558116365147896 0.04786313285751154 0  0.5629967514629171 0.07092097740850717 0  0.5729087948693581 0.09294463440875382 0  0.5854032268212688 0.1136129493462312 0  0.6002978503657798 0.132624531648159 0  0.617375468351841 0.1497021496342203 0  0.6363870506537689 0.1645967731787313 0  0.6570553655912463 0.177091205130642 0  0.6790790225914929 0.187003248537083 0  0.7021368671424885 0.1941883634852104 0  0.7258926639489354 0.1985417748196108 0  0.75 0.2 0  0.7741073360510646 0.1985417748196108 0  0.7978631328575116 0.1941883634852104 0  0.8209209774085071 0.187003248537083 0  0.8429446344087537 0.177091205130642 0  0.8636129493462312 0.1645967731787313 0  0.8826245316481591 0.1497021496342202 0  0.8997021496342202 0.132624531648159 0  0.9145967731787312 0.1136129493462312 0  0.927091205130642 0.09294463440875371 0  0.9370032485370829 0.07092097740850713 0  0.9441883634852104 0.04786313285751155 0  0.9485417748196108 0.02410733605106461 0  0.95 0 0  1 0 0  1 0.3 0  0.9758926639489353 0.3014582251803892 0  0.9521368671424885 0.3058116365147896 0  0.9290790225914928 0.3129967514629171 0  0.9070553655912461 0.3229087948693581 0  0.8863870506537688 0.3354032268212687 0  0.867375468351841 0.3502978503657798 0  0.8502978503657798 0.367375468351841 0  0.8354032268212687 0.3863870506537689 0  0.822908794869358 0.4070553655912464 0  0.8129967514629171 0.4290790225914929 0  0.8058116365147896 0.4521368671424885 0  0.8014582251803892 0.4758926639489354 0  0.8 0.4999999999999999 0  0.8014582251803892 0.5241073360510646 0  0.8058116365147896 0.5478631328575115 0  0.8129967514629171 0.5709209774085071 0  0.8229087948693581 0.5929446344087538 0  0.8354032268212688 0.6136129493462312 0  0.8502978503657798 0.632624531648159 0  0.867375468351841 0.6497021496342202 0  0.8863870506537689 0.6645967731787313 0  0.9070553655912463 0.677091205130642 0  0.9290790225914929 0.6870032485370829 0  0.9521368671424885 0.6941883634852104 0  0.9758926639489354 0.6985417748196108 0  1 0.7 0  1 1 0  0.95 1 0  0.9485417748196108 0.9758926639489353 0  0.9441883634852104 0.9521368671424885 0  0.9370032485370829 0.9290790225914928 0  0.927091205130642 0.9070553655912463 0  0.9145967731787312 0.8863870506537688 0  0.8997021496342201 0.8673754683518409 0  0.882624531648159 0.8502978503657798 0  0.863612949346231 0.8354032268212686 0  0.8429446344087537 0.822908794869358 0  0.8209209774085071 0.8129967514629171 0  0.7978631328575114 0.8058116365147896 0  0.7741073360510646 0.8014582251803892 0  0.75 0.8 0  0.7258926639489353 0.8014582251803892 0  0.7021368671424885 0.8058116365147896 0  0.6790790225914928 0.8129967514629171 0  0.6570553655912461 0.8229087948693581 0  0.6363870506537688 0.8354032268212688 0  0.617375468351841 0.8502978503657798 0  0.6002978503657798 0.867375468351841 0  0.5854032268212687 0.8863870506537689 0  0.572908794869358 0.9070553655912463 0  0.5629967514629171 0.9290790225914929 0  0.5558116365147896 0.9521368671424885 0  0.5514582251803892 0.9758926639489355 0  0.55 0.9999999999999999 0  0.45 0.9999999999999999 0  0.4485417748196108 0.9758926639489353 0  0.4441883634852104 0.9521368671424885 0  0.4370032485370829 0.9290790225914928 0  0.427091205130642 0.9070553655912463 0  0.4145967731787313 0.8863870506537688 0  0.3997021496342201 0.8673754683518409 0  0.382624531648159 0.8502978503657798 0  0.363612949346231 0.8354032268212686 0  0.3429446344087536 0.822908794869358 0  0.3209209774085071 0.8129967514629171 0  0.2978631328575115 0.8058116365147896 0  0.2741073360510646 0.8014582251803892 0  0.25 0.8 0  0.2258926639489353 0.8014582251803892 0  0.2021368671424885 0.8058116365147896 0  0.1790790225914928 0.8129967514629171 0  0.1570553655912462 0.8229087948693581 0  0.1363870506537688 0.8354032268212688 0  0.117375468351841 0.8502978503657798 0  0.1002978503657797 0.867375468351841 0  0.08540322682126869 0.8863870506537689 0  0.07290879486935797 0.9070553655912463 0  0.06299675146291703 0.9290790225914929 0  0.05581163651478957 0.9521368671424885 0  0.0514582251803892 0.9758926639489355 0  0.04999999999999999 0.9999999999999999 0  0 1 0  -0 0.7000000000000001 0  0.0241073360510646 0.6985417748196108 0  0.04786313285751161 0.6941883634852104 0  0.07092097740850711 0.6870032485370829 0  0.09294463440875372 0.677091205130642 0  0.1136129493462312 0.6645967731787312 0  0.1326245316481591 0.6497021496342202 0  0.1497021496342202 0.632624531648159 0  0.1645967731787313 0.6136129493462312 0  0.177091205130642 0.5929446344087537 0  0.187003248537083 0.5709209774085071 0  0.1941883634852104 0.5478631328575115 0  0.1985417748196108 0.5241073360510646 0  0.2 0.5 0  0.1985417748196108 0.4758926639489353 0  0.1941883634852104 0.4521368671424885 0  0.1870032485370829 0.4290790225914928 0  0.177091205130642 0.4070553655912463 0  0.1645967731787313 0.3863870506537688 0  0.1497021496342202 0.3673754683518409 0  0.132624531648159 0.3502978503657798 0  0.113612949346231 0.3354032268212686 0  0.09294463440875361 0.322908794869358 0  0.07092097740850711 0.3129967514629171 0  0.04786313285751148 0.3058116365147896 0  0.02410733605106464 0.3014582251803892 0  0.6985417748196108 0.5241073360510646 0  0.7 0.5 0  0.6985417748196108 0.4758926639489353 0  0.6941883634852104 0.4521368671424885 0  0.6870032485370829 0.4290790225914928 0  0.677091205130642 0.4070553655912463 0  0.6645967731787312 0.3863870506537688 0  0.6497021496342201 0.3673754683518409 0  0.632624531648159 0.3502978503657798 0  0.613612949346231 0.3354032268212686 0  0.5929446344087537 0.322908794869358 0  0.5709209774085071 0.3129967514629171 0  0.5478631328575114 0.3058116365147896 0  0.5241073360510646 0.3014582251803892 0  0.4999999999999999 0.3 0  0.4758926639489353 0.3014582251803892 0  0.4521368671424885 0.3058116365147896 0  0.4290790225914928 0.3129967514629171 0  0.4070553655912462 0.3229087948693581 0  0.3863870506537688 0.3354032268212687 0  0.367375468351841 0.3502978503657798 0  0.3502978503657798 0.367375468351841 0  0.3354032268212687 0.3863870506537689 0  0.322908794869358 0.4070553655912464 0  0.3129967514629171 0.4290790225914929 0  0.3058116365147896 0.4521368671424885 0  0.3014582251803892 0.4758926639489354 0  0.3 0.4999999999999999 0  0.3014582251803892 0.5241073360510646 0  0.3058116365147896 0.5478631328575115 0  0.3129967514629171 0.5709209774085071 0  0.3229087948693581 0.5929446344087538 0  0.3354032268212687 0.6136129493462312 0  0.3502978503657798 0.632624531648159 0  0.367375468351841 0.6497021496342202 0  0.3863870506537689 0.6645967731787313 0  0.4070553655912463 0.677091205130642 0  0.4290790225914929 0.6870032485370829 0  0.4521368671424885 0.6941883634852104 0  0.4758926639489354 0.6985417748196108 0  0.4999999999999999 0.7 0  0.5241073360510646 0.6985417748196108 0  0.5478631328575116 0.6941883634852104 0  0.5709209774085071 0.6870032485370829 0  0.5929446344087537 0.677091205130642 0  0.6136129493462312 0.6645967731787312 0  0.6326245316481591 0.6497021496342202 0  0.6497021496342202 0.632624531648159 0  0.6645967731787312 0.6136129493462312 0  0.677091205130642 0.5929446344087537 0  0.6870032485370829 0.5709209774085071 0  0.6941883634852104 0.5478631328575115 0  0 0.15 0  1 0.15 0  1 0.85 0  0 0.8500000000000001 0  0 0.075 0  1 0.075 0  1 0.925 0  0 0.925 0  0.5 0.8127595604293815 0  0.5069440078039168 0.190422209288238 0  0.25 0.3127595604293815 0  0.756944007803917 0.3095777907117619 0  0.756944007803917 0.6904222092882382 0  0.25 0.6872404395706185 0  0 0.225 0  0.4255768646051012 0.2241073097134061 0  1 0.7749999999999999 0  0.6773391559270888 0.2766774022734219 0  1 0.225 0  0.6755768646051011 0.7241073097134062 0  0 0.7750000000000001 0  0.5818971135297744 0.2287925518358889 0  0.8318971135297746 0.728792551835889 0  0.1659156081861886 0.7301636995921477 0  0.08376842746533225 0.2299656297760495 0  0.4236002201977974 0.7746535834185855 0  0.0840843918138115 0.7698363004078523 0  0.3340843918138113 0.7301636995921477 0  0.3340843918138114 0.2698363004078523 0  0.9159156081861887 0.2301636995921477 0  0.5840843918138116 0.7698363004078522 0  0.1659156081861887 0.2698363004078523 0  0.9162315725346678 0.7700343702239506 0  0.8340843918138114 0.2698363004078523 0  0.75 0.6146645247768686 0  0.5 0.1125158665330878 0  0.75 0.3874841334669124 0  0.2504983345544904 0.6122915843562002 0  0.2504983345544902 0.3877084156437999 0  0.5 0.8879783056303169 0  0.7005361650220154 0.3333055947145943 0  0.70416808765371 0.6599554817221275 0  0.449930214263529 0.1678187287522426 0  0.2247310981387008 0.7415600637745463 0  0.5155081196221678 0.7563797802146907 0  0.2752689018612993 0.2584399362254537 0  0.05605196690611226 0.8246131191226815 0  0.9439480330938878 0.1
[...]
<PointData  Scalars="Temperature"> 
<DataArray  type="Float64"  Name="Temperature"  format="ascii">1.3170960897812336e+02  1.4209718694086547e+02  1.4207982838939242e+02  1.4184002465057713e+02  1.4117013923425532e+02  1.4013067636302793e+02  1.3874510491447791e+02  1.3703298339802066e+02  1.3501443689254489e+02  1.3266475271379531e+02  1.2992119580844607e+02  1.2681403461363183e+02  1.2342927037724657e+02  1.1983361759662793e+02  1.1609154295301674e+02  1.1228939826985597e+02  1.0843855927315904e+02  1.0453379309327370e+02  1.0066188384767511e+02  9.6811487600391260e+01  9.3167440067439330e+01  8.9839942228901663e+01  8.6950645826935698e+01  8.4661063211489250e+01  8.2954022639091747e+01  8.1809067896530649e+01  8.1105588181738625e+01  8.0752477326557027e+01  8.0649722613249452e+01  8.0076364797077701e+01  7.9978221281702531e+01  7.9652306347255021e+01  7.8988006367518921e+01  7.7884833844736534e+01  7.6208550896594346e+01  7.3943441238707223e+01  7.1141410022993909e+01  6.7904404971294369e+01  6.4391556725262078e+01  6.0807573038679848e+01  5.7342142324819896e+01  5.4144746793578065e+01  5.1290141516523917e+01  4.8794952346580111e+01  4.6643913527574767e+01  4.4828303320275339e+01  4.3279126988516197e+01  4.1980455220704052e+01  4.0909866975903135e+01  4.0020346698489540e+01  3.9292030540852728e+01  3.8692516550555816e+01  3.8217249031281163e+01  3.7864750674207471e+01  3.7638817290393256e+01  3.7558278494130320e+01  3.7551747125343240e+01  4.0935141682532738e+01  4.1081409577621429e+01  4.1504177919770228e+01  4.2160783222300758e+01  4.2964801820321213e+01  4.3806939245295709e+01  4.4545672815934815e+01  4.5059752073820661e+01  4.5241155068007174e+01  4.5053824734928291e+01  4.4445679055867181e+01  4.3521983358811042e+01  4.2377661465455482e+01  4.1141376261497413e+01  3.9934925531869240e+01  3.8826089014473418e+01  3.7814493835771792e+01  3.6893816980967451e+01  3.6007418697692550e+01  3.5133822934056063e+01  3.4284045677173964e+01  3.3451915880292162e+01  3.2690504054951404e+01  3.2036279187432108e+01  3.1537524806835094e+01  3.1228729029747498e+01  3.1120271906262328e+01  2.8885579041927127e+01  2.8889014466334046e+01  2.8939123446869491e+01  2.9080019262941953e+01  2.9300552232429947e+01  2.9599305475962492e+01  2.9976140416756074e+01  3.0435201541141087e+01  3.0987539100570029e+01  3.1643248377503433e+01  3.2417523659213010e+01  3.3310343793475347e+01  3.4303003385164594e+01  3.5404381888495344e+01  3.6585322913681956e+01  3.7881412670002149e+01  3.9273773738252892e+01  4.0749796681822666e+01  4.2263479226906732e+01  4.3757808200568633e+01  4.5112845283834638e+01  4.6293042205466868e+01  4.7184104038195677e+01  4.7812312574032262e+01  4.8168925429327203e+01  4.8330716763108619e+01  4.8388640493267424e+01  4.8398067637681102e+01  4.8722079564368897e+01  4.8838372901275477e+01  4.9178256450497713e+01  4.9783183612005296e+01  5.0716873164429238e+01  5.2058069816840572e+01  5.3791549527343008e+01  5.5913590145297675e+01  5.8318809745574349e+01  6.0929374063398640e+01  6.3552395435545812e+01  6.6016071522178478e+01  6.8203875245315828e+01  6.9979579672970800e+01  7.1341937788286913e+01  7.2289433146701995e+01  7.2910573943418655e+01  7.3281666658643147e+01  7.3483239485977975e+01  7.3581719166761417e+01  7.3616071456811156e+01  7.3612489672646902e+01  7.3591419640546874e+01  7.3563579051368109e+01  7.3537793061126351e+01  7.3520414294038019e+01  7.3513609244822376e+01  7.3513513449084058e+01  7.4006133363709225e+01  7.4028819226884949e+01  7.4103044282657677e+01  7.4249748557545956e+01  7.4513079113678671e+01  7.4956580345562344e+01  7.5674423678307704e+01  7.6765042014353440e+01  7.8344291893415203e+01  8.0462394538553951e+01  8.3178443154282760e+01  8.6432780765709097e+01  9.0129117050961483e+01  9.4036216990302421e+01  9.7961095240070932e+01  1.0173656566826280e+02  1.0531138670970344e+02  1.0873269280047496e+02  1.1212645479322087e+02  1.1551846618498811e+02  1.1891137111591443e+02  1.2219359883290660e+02  1.2525677486777792e+02  1.2792261666811945e+02  1.2995048451956777e+02  1.3125274777184964e+02  4.0205746222373556e+01  4.1411901755039636e+01  4.2832684751160748e+01  4.4441264661358240e+01  4.6237607316973040e+01  4.8281325128441544e+01  5.0653739257694852e+01  5.3405559479895267e+01  5.6592499929554400e+01  6.0111346198077889e+01  6.3917969343149750e+01  6.7944615838060969e+01  7.2048717028577698e+01  7.6192124032684873e+01  8.0328459671561077e+01  8.4446046580559027e+01  8.8477543383788813e+01  9.2391063872931127e+01  9.6033364280474203e+01  9.9275028030407782e+01  1.0183356291245100e+02  1.0359752411173845e+02  1.0437284319235495e+02  1.0410173529750065e+02  1.0274052304726847e+02  1.0043355265501778e+02  9.7329819055614124e+01  9.3670173379828526e+01  8.9765833855427559e+01  8.5860921345634196e+01  8.2130081512167322e+01  7.8535689235096825e+01  7.5142567139985758e+01  7.1855430035332574e+01  6.8606889663858098e+01  6.5408478351422772e+01  6.2212313355671448e+01  5.9143859188927507e+01  5.6192234155228434e+01  5.3447052516429906e+01  5.0885425269309579e+01  4.8525760794319304e+01  4.6352052759996546e+01  4.4398463438299224e+01  4.2639343696031993e+01  4.1131298481081203e+01  3.9920022745915134e+01  3.9037125957317222e+01  3.8524028912633909e+01  3.8398035279110786e+01  3.8658821315381168e+01  3.9275611639430032e+01  1.3702881825976485e+02  3.9240017935796821e+01  2.9956693301296301e+01  7.3670959985844348e+01  1.4053800967798202e+02  3.8075329818757957e+01  2.9212384326423219e+01  7.3557856858852517e+01  5.0057122515680561e+01  7.9706222994002616e+01  1.1054364554072465e+02  4.9015735144651245e+01  3.6538296864805403e+01  7.3535120687805218e+01  1.3351046263152557e+02  8.9307497793060222e+01  3.0718215977535447e+01  5.6889824477926432e+01  4.0368686598595282e+01  3.9574390718858382e+01  7.3858591404369989e+01  7.0402985085348249e+01  3.3928019754177392e+01  7.3814308740302266e+01  1.3043526954778559e+02  5.6314394722761143e+01  7.3834523972387046e+01  6.5980531500161945e+01  1.0203950399374162e+02  4.1536259251203845e+01  4.5023532846586782e+01  1.2101131605146722e+02  3.1464810174630479e+01  4.5080321022310486e+01  3.7520340333544425e+01  8.0392827515489273e+01  4.6646390982677453e+01  7.9403871634304338e+01  1.0658017232430856e+02  4.9241411430352514e+01  5.1903289197619287e+01  3.8084439456511610e+01  8.4807894027028794e+01  7.2137705282631188e+01  4.9419793258550371e+01  1.0879187677591625e+02  7.3700774464275256e+01  4.0068848608252715e+01  1.3469265510947542e+02  3.0526211122162383e+01  8.2421020122847750e+01  3.7369380406150420e+01  5.2098144195567926e+01  5.2972071372705038e+01  7.5370883922489639e+01  1.1534564476302695e+02  7.1259300097448772e+01  1.0533909515779631e+02  4.7012377063251584e+01  8.0376917760825521e+01  4.4030804123389856e+01  3.9341069594302340e+01  1.0125590618458358e+02  8.7357284849923218e+01  4.8554529414950302e+01  4.8752671491999649e+01  1.1510805524384398e+02  6.9708497254447238e+01  7.4713272338828631e+01  3.6083230520574688e+01  4.5971597027435941e+01  6.3315392493328908e+01  9.5346379541495850e+01  9.7128333350282162e+01  4.1936475701742992e+01  4.2725821829750785e+01  6.2313271079495458e+01  3.5467725184757704e+01  4.7938067203575301e+01  4.1543709959710043e+01  8.0363057578868776e+01  9.4658637294230928e+01  6.0993999132265976e+01  6.1775893550196912e+01  7.6304804506299476e+01  3.2555638023003432e+01  3.2609473786363040e+01  5.2549194747469684e+01  1.2695618698701571e+02  7.3952797179408122e+01  4.2598232908201730e+01  7.3553739130875286e+01  1.2510557338407526e+02  7.4142908547449935e+01  4.0969007234287133e+01  4.3279703313675810e+01  3.1201625138561841e+01  1.3140216539978823e+02  3.9110042455424036e+01  2.9807784568220459e+01  1.3776669824186484e+02  7.3631901510320915e+01  4.6066378392865090e+01  3.5187532414643975e+01  7.7706172985738917e+01  3.7909041479151192e+01  4.4775149714161344e+01  6.7106491177465372e+01  1.2040176686732512e+02  4.1212320849386494e+01  1.0139828011969711e+02  7.4875313834509257e+01  7.3645572411725112e+01  1.3169623750062979e+02  3.1279076925473426e+01  7.8013415323326797e+01  1.1070163858421337e+02  4.8665156671712843e+01  3.4112722472098291e+01  1.0740775358610738e+02  7.5246051166879028e+01  5.6665797926353306e+01  5.7056575237979693e+01  5.6829756325662288e+01  8.8043600135063684e+01  4.0218565312330348e+01  9.0867947166802395e+01  3.9707320131205499e+01  5.0977730083632729e+01  5.5440632926383671e+01  6.9980370627431554e+01  5.2512589494135774e+01  3.4202320119965506e+01  6.8239656084066681e+01  7.2767904880755339e+01  1.0269324199184607e+02  6.6385673601641798e+01  1.1975398981094978e+02  4.4481558950058954e+01  4.5369089590005615e+01  8.3931942607403556e+01  1.3322496874450471e+02  4.5447282095272620e+01  4.0570758245684750e+01  7.3815986377599401e+01  4.8125709835024736e+01  7.3755750352660854e+01  3.9842421913716073e+01  4.6930295913447303e+01  3.0358523149417010e+01  8.2883670521772729e+01  4.8764415127407595e+01  4.8940632400244930e+01  8.1284738376672280e+01  1.3518366863375309e+02  3.8025975122718329e+01  3.8220678265462176e+01  3.6899380354443750e+01  8.3136464963246596e+01  1.0666650755738154e+02  7.6675062588425504e+01  1.0519925609739369e+02  7.4082679681470012e+01  8.1270117059508266e+01  7.9514209202020311e+01  4.4937789801446556e+01  4.6299382033575029e+01  4.7875544350825699e+01  4.8490762752184317e+01  4.9745609585464528e+01  3.0358452024067134e+01  7.3958445879389785e+01  2.9561368606890841e+01  4.0751801182961337e+01  1.3223742009934625e+02  3.7690391708788262e+01  1.4168514736763314e+02  3.8623103605047355e+01  3.8419342130274892e+01  1.3889347735587108e+02  2.8971396727283793e+01  7.3525274521039691e+01  3.0998666152920311e+01  7.3606558294172913e+01  7.3582550040127686e+01  1.0358302787132574e+02  8.2640623775633728e+01  7.3702870168156309e+01  1.0601962568443696e+02  5.0771311889698453e+01  3.1831742094820800e+01  6.9512588691416056e+01  1.1406242765772782e+02  3.6148670392970843e+01  3.6886671930626846e+01  5.2086943034700859e+01  3.0826324381982595e+01  4.6979296421229776e+01  7.8189670771461948e+01  7.6137824103411759e+01  1.1007269222692278e+02  1.2510398852525982e+02  6.6514817449539180e+01  7.7924888816995548e+01  4.9326976932733864e+01  4.7410758634638270e+01  4.7823129719970240e+01  3.8948863433497145e+01  3.9120139348038599e+01  2.9414719620772356e+01  1.3958519638480067e+02  1.2867800385696304e+02  3.5113477857916401e+01  7.1285078337603636e+01  1.1415776028296392e+02  4.3531952936675594e+01  7.4241563128023060e+01  3.7813278626520287e+01  4.1630511294556236e+01  5.1707073320838852e+01  9.3036231374420780e+01  4.1001660186106051e+01  5.8336199652089796e+01  1.4112091159214404e+02  3.7968849910436610e+01  2.9090855079239947e+01  7.3540797047697922e+01  5.9555331623424614e+01  3.8849566960238349e+01  8.5966493238957042e+01  7.3639776766195226e+01  7.3706447026128174e+01  3.9761451070728235e+01  3.9629707865670504e+01  6.3313906480949207e+01  1.3423535343049193e+02  1.3263529264047068e+02  1.3587026446666445e+02  8.7492564487133279e+01  8.6845673226105859e+01  1.2926177319424772e+02  5.2114325649736642e+01  7.4563338653754926e+01  7.3478340759069027e+01  4.2399042380501250e+01  5.4602929767534626e+01  4.9828311458709273e+01  9.4732249956112895e+01  4.1744118323741432e+01  3.0137385878871711e+01  3.8442326831082141e+01  3.7390499770715117e+01  7.1729239309637777e+01  4.8464610096269936e+01  4.5035061912452768e+01  8.0574438252678959e+01  8.0162311903600838e+01  4.2670012106156811e+01  4.3571502554108342e+01  9.7979768208194130e+01  9.9899707055522939e+01  5.4518732478545076e+01  3.3212896774500130e+01  4.8883419395275432e+01  6.2609612106628788e+01  1.0510822632045306e+02  6.3984940003506622e+01  1.1761275458082422e+02  6.8884339205278067e+01  7.1125807224591881e+01  7.3330218510510406e+01  1.0701893124224024e+02  1.1138238491561725e+02  7.2221724259815971e+01  4.5979199115326104e+01  4.6914326737458147e+01  1.0779128928919688e+02  7.4437393700617818e+01  1.0462154560198499e+02  1.1694975277306048e+02  7.0386785341966444e+01  7.6845937028544327e+01  4.8463015138634624e+01  4.0425898335909430e+01  4.0551184905780204e+01  9.1737334953498618e+01  9.1016906295769303e+01  1.2395969578319149e+02  3.8654039560781833e+01  3.8198186490605259e+01  3.6976561547611794e+01  9.2215313756101779e+01  4.1109670794669363e+01  4.9928043919120270e+01  9.1533156375734180e+01  5.2738071105016452e+01  5.4266552001512196e+01  5.0604755748719477e+01  8.2379110640624219e+01  8.1007455936168526e+01  5.3809702257657527e+01  5.9436904097476017e+01  3.0949328516130226e+01  1.2843488026629356e+02  4.5479953930270753e+01  7.5248850114971859e+01  3.2840907544525784e+01  3.1983679770898615e+01  4.7299961324387269e+01  4.5545078205937223e+01  4.3950824923778960e+01  7.3121318443812925e+01  9.7707503110722598e+01  9.9482750764886973e+01  4.3117774938300769e+01  4.3683734589453614e+01  5.9700103867616065e+01  7.1460017464935660e+01  7.9476507141231437e+01  6.6998973893369808e+01  4.2500758487785163e+01  3.8187543909385077e+01  4.0873989916863579e+01  7.3740774779801200e+01  7.4186682218507201e+01  2.8887318256403546e+01  3.7554815843104436e+01  1.4208989424493726e+02  7.3513482976466236e+01  8.2271184233826929e+01  6.5859891965006170e+01  9.8729837815313687e+01  5.4860692166923819e+01  4.0561990702962540e+01  4.3588790586547425e+01  7.9843212120784017e+01  8.0905230198845274e+01  1.0427457423526704e+02  4.7212433601955041e+01  3.3394586190808148e+01  3.2892338021762903e+01  3.2117834791887297e+01  3.3405334882669358e+01  4.3748899478564489e+01  9.9322260943008843e+01  8.0562037910858621e+01  4.8597501005923483e+01  4.8444100523757967e+01  4.8998630257446742e+01  4.2942460795086610e+01  3.8914902077662695e+01  8.7198787363892080e+01  8.6246184479909758e+01  1.2278269337878078e+02  1.0346097064621833e+02  5.8993721246149178e+01  1.2794183629205196e+02  7.4847770668026754e+01  6.3739455903416726e+01  4.5440318507933178e+01  1.3274223036728765e+02  8.5023709099441334e+01  3.6051657162537019e+01  3.6184937687878318e+01  3.0763249713905715e+01  7.3901842211909681e+01  1.1837241103621584e+02  6.7890802836848891e+01  7.3443928900457450e+01  7.3841919630657458e+01  7.3797271411943015e+01  9.6007311381608119e+01  4.2068026127615845e+01  1.3608959483891772e+02  3.1793278662816814e+01  1.0337681376399937e+02  6.0341885218063162e+01  7.3803282153300117e+01  4.0073705913821414e+01  3.6852036996682514e+01  5.4800596081804485e+01  1.0298671212073525e+02  4.5734793845236979e+01  1.1376928587366102e+02  4.3839295095554000e+01  3.0911748139242906e+01  7.4281797504030720e+01  6.0109529633383247e+01  1.0101496847333827e+02  4.1913314497437263e+01  8.0396215067347413e+01  3.7699065701584082e+01  7.3521760659316556e+01  1.4180418567067753e+02  2.8945960693788578e+01  7.0814782485114932e+01  4.7200956575247844e+01  3.2436609834894497e+01  4.4377423958776674e+01  7.4252350946683350e+01  5.9086960677901061e+01  4.1771407847007076e+01  4.4196476805212441e+01  1.3017918372745703e+02  7.5649261812187973e+01  7.3973245668207497e+01  7.3453451512635795e+01  4.6427630944464802e+01  6.1499474170538186e+01  6.4665438430937655e+01  7.4031853337013573e+01  4.1197127852805110e+01  7.3877584932852358e+01  4.5346513252936944e+01  7.7240885453341889e+01  1.1050224219016648e+02  8.0203982736390344e+01  3.5058218727242739e+01  1.1271325353190545e+02  4.9973201548308367e+01  3.4557359318515900e+01  3.6362994744263702e+01  3.6102865012867248e+01  5.1104312389955339e+01  4.9323716411583597e+01  3.1168289514712512e+01  7.9088751026732851e+01  1.1744388474127865e+02  6.7302286230700702e+01  5.0077423737154128e+01  3.8258037291495249e+01  7.9124218937136362e+01  7.3654204296601492e+01  3.0537042663781378e+01  1.0868572216403540e+02  7.2939924587130903e+01  8.0164572373176497e+01  4.8670153108558310e+01  8.0565943086087472e+01  7.7950615210414853e+01  1.2162580806796852e+02  4.0537254805696804e+01  7.3656643187474998e+01  7.3943525278589291e+01  4.1105899844498964e+01  4.0585058087052182e+01  4.0555394984401161e+01  3.0798781514538817e+01  1.3458915918868666e+02  6.5934781294800473e+01  1.0940161327445774e+02  4.8527087496853348e+01  7.9308292883476099e+01  7.3227734615986648e+01  6.3347825042914018e+01  8.6061393191502049e+01  1.0539076539677548e+02  1.1225658920775847e+02  4.3443374531283503e+01  7.3602371268965129e+01  3.8981519868040799e+01  3.3790058861634762e+01  7.6274068114684951e+01  5.4200461436614432e+01  1.2673085541767257e+02  4.2476923406985968e+01  1.2326363351630224e+02  1.2555578885717023e+02  3.1479693940815004e+01  3.1138317446380203e+01  1.3164327983105088e+02  1.3181990989646565e+02  9.5594479497647825e+01  5.4856709857586651e+01  4.5274506866227554e+01  4.6070056011232317e+01  5.4700571784667417e+01  5.1072791704219334e+01  5.0075151414390106e+01  3.0280001757641742e+01  4.7767319155982484e+01  5.8733679555501482e+01  1.0587724792986494e+02  9.8349588702958158e+01  4.6122306082475447e+01  4.2756652832017899e+01  4.8119835255664597e+01  5.3363572228754542e+01  3.7456808579759283e+01  1.0419463069369569e+02  8.2360016757698105e+01  7.3756019054876887e+01  7.8841610754075077e+01  7.8132261512754468e+01  1.0882507208749382e+02  2.9755202671839832e+01  1.3797299147491032e+02  1.3713833079088221e+02  1.3722923478148451e+02  3.0018053419537640e+01  2.9612707616216326e+01  3.3845026124863828e+01  7.2020992930415545e+01  3.5078249619684030e+01  8.4109786121343802e+01  3.7354908815182277e+01  3.9580027543827740e+01  3.9221824029888730e+01  7.3669468563270371e+01  7.3636529427225170e+01  7.3658449576769328e+01  4.8381813732347197e+01  1.3868842733001259e+02  7.3611979602275042e+01  3.8734041024595470e+01  3.1761335387674034e+01  7.6487179759001350e+01  5.0615580735545791e+01  7.2409115251119474e+01  1.0803962067544759e+02  7.7144033853350720e+01  4.0877753985821620e+01  7.3993705647023276e+01  3.9644430360323227e+01  3.5588515183584072e+01  3.5845650800024281e+01  3.4399057485046690e+01  1.1643584829299955e+02  4.9674932357936797e+01  1.3085085034380810e+02  3.4834654609406762e+01  7.3554414127585801e+01  4.1534358127422507e+01  8.0635769903660332e+01  7.6444100961566932e+01  2.9879008806271795e+01  5.1707576083586552e+01  1.3065815727718521e+02  3.7090629069992914e+01  3.7582921644021901e+01  4.1642632637219457e+01  1.0011305817995211e+02  6.8363827777550767e+01  4.1605781651927124e+01  5.1245111664128160e+01  4.6808792845604998e+01  4.7179239533111392e+01  1.1803233439085142e+02  9.4972262066648881e+01  6.4878259331055219e+01  4.9366804807348053e+01  4.4386271415034948e+01  4.8290002283628084e+01  5.0489414866414904e+01  4.9242700016105388e+01  7.2643801935661713e+01  7.5007235759627193e+01  6.6421017238750508e+01  4.0879002427940136e+01  7.3985452362316579e+01  4.2121126908034377e+01  1.0918178375285329e+02  7.4710757504089301e+01  8.1550314923310779e+01  8.1367113069284727e+01  8.3944651286214153e+01  4.5653629399679907e+01  5.7068508519010763e+01  3.8185146709227666e+01  3.8602392768340970e+01  3.7740391976928144e+01  5.3996451078855166e+01  3.1144888700277157e+01  4.0570026466494681e+01  5.7951538578174919e+01  1.3105262449387229e+02  1.3335639993899272e+02  1.2252591696011238e+02  5.6288345224620585e+01  6.8996983631911036e+01  6.6878991230398924e+01  4.5492509811379612e+01  4.4522663223894170e+01  1.1955917939016017e+02  1.0081956280798369e+02  3.1295567240544916e+01  8.5161616140726025e+01  8.8713234752917629e+01  4.4220566272010245e+01  1.1626047760035381e+02  4.0724565488267245e+01  8.9464646726809747e+01  4.0012109465195472e+01  8.9917134782178394e+01  5.6132893543171697e+01  5.7630135277457825e+01  4.5895241198418127e+01  1.0255937909519190e+02  4.5328211104642740e+01  3.9918077925846447e+01  4.8944666497813650e+01  4.7339320859668646e+01  1.0351831002448169e+02  4.9869637218337132e+01  5.6881712399186036e+01  9.0483780514364881e+01  5.7623201192184979e+01  4.0547356473240029e+01  8.9302097375429099e+01  2.9609569012873909e+01  1.3834548344521238e+02  8.365