<?xml version="1.0"?>
<VTKFile type="UnstructuredGrid"  version="0.1"  >
<UnstructuredGrid>
<Piece  NumberOfPoints="2331" NumberOfCells="4248">
<Points>
<DataArray  type="Float64"  NumberOfComponents="3"  format="ascii">0 0.3 0  0 0 0  0.04999999999999999 0 0  0.0514582251803892 0.02410733605106462 0  0.0558116365147896 0.04786313285751154 0  0.06299675146291706 0.07092097740850717 0  0.07290879486935808 0.09294463440875382 0  0.08540322682126872 0.1136129493462312 0  0.1002978503657798 0.132624531648159 0  0.117375468351841 0.1497021496342203 0  0.1363870506537689 0.1645967731787313 0  0.1570553655912463 0.177091205130642 0  0.1790790225914929 0.187003248537083 0  0.2021368671424885 0.1941883634852104 0  0.2258926639489354 0.1985417748196108 0  0.25 0.2 0  0.2741073360510646 0.1985417748196108 0  0.2978631328575116 0.1941883634852104 0  0.3209209774085071 0.187003248537083 0  0.3429446344087537 0.177091205130642 0  0.3636129493462312 0.1645967731787313 0  0.3826245316481591 0.1497021496342202 0  0.3997021496342202 0.132624531648159 0  0.4145967731787313 0.1136129493462312 0  0.427091205130642 0.09294463440875371 0  0.4370032485370829 0.07092097740850713 0  0.4441883634852104 0.04786313285751155 0  0.4485417748196108 0.02410733605106461 0  0.45 0 0  0.55 0 0  0.5514582251803892 0.02410733605106462 0  0.5558116365147896 0.04786313285751154 0  0.5629967514629171 0.07092097740850717 0  0.5729087948693581 0.09294463440875382 0  0.5854032268212688 0.1136129493462312 0  0.6002978503657798 0.132624531648159 0  0.617375468351841 0.1497021496342203 0  0.6363870506537689 0.1645967731787313 0  0.6570553655912463 0.177091205130642 0  0.6790790225914929 0.187003248537083 0  0.7021368671424885 0.1941883634852104 0  0.7258926639489354 0.1985417748196108 0  0.75 0.2 0  0.7741073360510646 0.1985417748196108 0  0.7978631328575116 0.1941883634852104 0  0.8209209774085071 0.187003248537083 0  0.8429446344087537 0.177091205130642 0  0.8636129493462312 0.1645967731787313 0  0.8826245316481591 0.1497021496342202 0  0.8997021496342202 0.132624531648159 0  0.9145967731787312 0.1136129493462312 0  0.927091205130642 0.09294463440875371 0  0.9370032485370829 0.07092097740850713 0  0.9441883634852104 0.04786313285751155 0  0.9485417748196108 0.02410733605106461 0  0.95 0 0  1 0 0  1 0.3 0  0.9758926639489353 0.3014582251803892 0  0.9521368671424885 0.3058116365147896 0  0.9290790225914928 0.3129967514629171 0  0.9070553655912461 0.3229087948693581 0  0.8863870506537688 0.3354032268212687 0  0.867375468351841 0.3502978503657798 0  0.8502978503657798 0.367375468351841 0  0.8354032268212687 0.3863870506537689 0  0.822908794869358 0.4070553655912464 0  0.8129967514629171 0.4290790225914929 0  0.8058116365147896 0.4521368671424885 0  0.8014582251803892 0.4758926639489354 0  0.8 0.4999999999999999 0  0.8014582251803892 0.5241073360510646 0  0.8058116365147896 0.5478631328575115 0  0.8129967514629171 0.5709209774085071 0  0.8229087948693581 0.5929446344087538 0  0.8354032268212688 0.6136129493462312 0  0.8502978503657798 0.632624531648159 0  0.867375468351841 0.6497021496342202 0  0.8863870506537689 0.6645967731787313 0  0.9070553655912463 0.677091205130642 0  0.9290790225914929 0.6870032485370829 0  0.9521368671424885 0.6941883634852104 0  0.9758926639489354 0.6985417748196108 0  1 0.7 0  1 1 0  0.95 1 0  0.9485417748196108 0.9758926639489353 0  0.9441883634852104 0.9521368671424885 0  0.9370032485370829 0.9290790225914928 0  0.927091205130642 0.9070553655912463 0  0.9145967731787312 0.8863870506537688 0  0.8997021496342201 0.8673754683518409 0  0.882624531648159 0.8502978503657798 0  0.863612949346231 0.8354032268212686 0  0.8429446344087537 0.822908794869358 0  0.8209209774085071 0.8129967514629171 0  0.7978631328575114 0.8058116365147896 0  0.7741073360510646 0.8014582251803892 0  0.75 0.8 0  0.7258926639489353 0.8014582251803892 0  0.7021368671424885 0.8058116365147896 0  0.6790790225914928 0.8129967514629171 0  0.6570553655912461 0.8229087948693581 0  0.6363870506537688 0.8354032268212688 0  0.617375468351841 0.8502978503657798 0  0.6002978503657798 0.867375468351841 0  0.5854032268212687 0.8863870506537689 0  0.572908794869358 0.9070553655912463 0  0.5629967514629171 0.9290790225914929 0  0.5558116365147896 0.9521368671424885 0  0.5514582251803892 0.9758926639489355 0  0.55 0.9999999999999999 0  0.45 0.9999999999999999 0  0.4485417748196108 0.9758926639489353 0  0.4441883634852104 0.9521368671424885 0  0.4370032485370829 0.9290790225914928 0  0.427091205130642 0.9070553655912463 0  0.4145967731787313 0.8863870506537688 0  0.3997021496342201 0.8673754683518409 0  0.382624531648159 0.8502978503657798 0  0.363612949346231 0.8354032268212686 0  0.3429446344087536 0.822908794869358 0  0.3209209774085071 0.8129967514629171 0  0.2978631328575115 0.8058116365147896 0  0.2741073360510646 0.8014582251803892 0  0.25 0.8 0  0.2258926639489353 0.8014582251803892 0  0.2021368671424885 0.8058116365147896 0  0.1790790225914928 0.8129967514629171 0  0.1570553655912462 0.8229087948693581 0  0.1363870506537688 0.8354032268212688 0  0.117375468351841 0.8502978503657798 0  0.1002978503657797 0.867375468351841 0  0.08540322682126869 0.8863870506537689 0  0.07290879486935797 0.9070553655912463 0  0.06299675146291703 0.9290790225914929 0  0.05581163651478957 0.9521368671424885 0  0.0514582251803892 0.9758926639489355 0  0.04999999999999999 0.9999999999999999 0  0 1 0  -0 0.7000000000000001 0  0.0241073360510646 0.6985417748196108 0  0.04786313285751161 0.6941883634852104 0  0.07092097740850711 0.6870032485370829 0  0.09294463440875372 0.677091205130642 0  0.1136129493462312 0.6645967731787312 0  0.1326245316481591 0.6497021496342202 0  0.1497021496342202 0.632624531648159 0  0.1645967731787313 0.6136129493462312 0  0.177091205130642 0.5929446344087537 0  0.187003248537083 0.5709209774085071 0  0.1941883634852104 0.5478631328575115 0  0.1985417748196108 0.5241073360510646 0  0.2 0.5 0  0.1985417748196108 0.4758926639489353 0  0.1941883634852104 0.4521368671424885 0  0.1870032485370829 0.4290790225914928 0  0.177091205130642 0.4070553655912463 0  0.1645967731787313 0.3863870506537688 0  0.1497021496342202 0.3673754683518409 0  0.132624531648159 0.3502978503657798 0  0.113612949346231 0.3354032268212686 0  0.09294463440875361 0.322908794869358 0  0.07092097740850711 0.3129967514629171 0  0.04786313285751148 0.3058116365147896 0  0.02410733605106464 0.3014582251803892 0  0.6985417748196108 0.5241073360510646 0  0.7 0.5 0  0.6985417748196108 0.4758926639489353 0  0.6941883634852104 0.4521368671424885 0  0.6870032485370829 0.4290790225914928 0  0.677091205130642 0.4070553655912463 0  0.6645967731787312 0.3863870506537688 0  0.6497021496342201 0.3673754683518409 0  0.632624531648159 0.3502978503657798 0  0.613612949346231 0.3354032268212686 0  0.5929446344087537 0.322908794869358 0  0.5709209774085071 0.3129967514629171 0  0.5478631328575114 0.3058116365147896 0  0.5241073360510646 0.3014582251803892 0  0.4999999999999999 0.3 0  0.4758926639489353 0.3014582251803892 0  0.4521368671424885 0.3058116365147896 0  0.4290790225914928 0.3129967514629171 0  0.4070553655912462 0.3229087948693581 0  0.3863870506537688 0.3354032268212687 0  0.367375468351841 0.3502978503657798 0  0.3502978503657798 0.367375468351841 0  0.3354032268212687 0.3863870506537689 0  0.322908794869358 0.4070553655912464 0  0.3129967514629171 0.4290790225914929 0  0.3058116365147896 0.4521368671424885 0  0.3014582251803892 0.4758926639489354 0  0.3 0.4999999999999999 0  0.3014582251803892 0.5241073360510646 0  0.3058116365147896 0.5478631328575115 0  0.3129967514629171 0.5709209774085071 0  0.3229087948693581 0.5929446344087538 0  0.3354032268212687 0.6136129493462312 0  0.3502978503657798 0.632624531648159 0  0.367375468351841 0.6497021496342202 0  0.3863870506537689 0.6645967731787313 0  0.4070553655912463 0.677091205130642 0  0.4290790225914929 0.6870032485370829 0  0.4521368671424885 0.6941883634852104 0  0.4758926639489354 0.6985417748196108 0  0.4999999999999999 0.7 0  0.5241073360510646 0.6985417748196108 0  0.5478631328575116 0.6941883634852104 0  0.5709209774085071 0.6870032485370829 0  0.5929446344087537 0.677091205130642 0  0.6136129493462312 0.6645967731787312 0  0.6326245316481591 0.6497021496342202 0  0.6497021496342202 0.632624531648159 0  0.6645967731787312 0.6136129493462312 0  0.677091205130642 0.5929446344087537 0  0.6870032485370829 0.5709209774085071 0  0.6941883634852104 0.5478631328575115 0  0 0.15 0  1 0.15 0  1 0.85 0  0 0.8500000000000001 0  0 0.075 0  1 0.075 0  1 0.925 0  0 0.925 0  0.5 0.8127595604293815 0  0.5069440078039168 0.190422209288238 0  0.25 0.3127595604293815 0  0.756944007803917 0.3095777907117619 0  0.756944007803917 0.6904222092882382 0  0.25 0.6872404395706185 0  0 0.225 0  0.4255768646051012 0.2241073097134061 0  1 0.7749999999999999 0  0.6773391559270888 0.2766774022734219 0  1 0.225 0  0.6755768646051011 0.7241073097134062 0  0 0.7750000000000001 0  0.5818971135297744 0.2287925518358889 0  0.8318971135297746 0.728792551835889 0  0.1659156081861886 0.7301636995921477 0  0.08376842746533225 0.2299656297760495 0  0.4236002201977974 0.7746535834185855 0  0.0840843918138115 0.7698363004078523 0  0.3340843918138113 0.7301636995921477 0  0.3340843918138114 0.2698363004078523 0  0.9159156081861887 0.2301636995921477 0  0.5840843918138116 0.7698363004078522 0  0.1659156081861887 0.2698363004078523 0  0.9162315725346678 0.7700343702239506 0  0.8340843918138114 0.2698363004078523 0  0.75 0.6146645247768686 0  0.5 0.1125158665330878 0  0.75 0.3874841334669124 0  0.2504983345544904 0.6122915843562002 0  0.2504983345544902 0.3877084156437999 0  0.5 0.8879783056303169 0  0.7005361650220154 0.3333055947145943 0  0.70416808765371 0.6599554817221275 0  0.449930214263529 0.1678187287522426 0  0.2247310981387008 0.7415600637745463 0  0.5155081196221678 0.7563797802146907 0  0.2752689018612993 0.2584399362254537 0  0.05605196690611226 0.8246131191226815 0  0.9439480330938878 0.1
[...]
<PointData  Scalars="Temperature"> 
<DataArray  type="Float64"  Name="Temperature"  format="ascii">6.7089142616227107e+01  7.3575485669343763e+01  7.3559913764643781e+01  7.3418717353698369e+01  7.3022487505939182e+01  7.2402848623572893e+01  7.1569221646012878e+01  7.0528174499476535e+01  6.9292238810286690e+01  6.7847797219618215e+01  6.6159243932723072e+01  6.4247488856353129e+01  6.2166753482323770e+01  5.9959264933352330e+01  5.7668626589181407e+01  5.5356748362460898e+01  5.3043786466726687e+01  5.0741193394611876e+01  4.8511272452180464e+01  4.6344093248472056e+01  4.4334401600580598e+01  4.2527217468676774e+01  4.0965509476526833e+01  3.9726233910220436e+01  3.8790955283020566e+01  3.8153132738520938e+01  3.7747644137211637e+01  3.7538693908643260e+01  3.7475526932160619e+01  3.6914341366600901e+01  3.6858559983605325e+01  3.6677470188098013e+01  3.6324026157830879e+01  3.5768676675005167e+01  3.4964405642884209e+01  3.3928894375227003e+01  3.2710978744006390e+01  3.1359800569611672e+01  2.9952650357974118e+01  2.8570802183200747e+01  2.7279692018818700e+01  2.6125140435730909e+01  2.5125605836332554e+01  2.4277233852147123e+01  2.3567048611809000e+01  2.2987560130363530e+01  2.2511983896968612e+01  2.2130873668956983e+01  2.1832640027889319e+01  2.1599248994551882e+01  2.1420114326591346e+01  2.1282305647208211e+01  2.1179700487966507e+01  2.1106836828748740e+01  2.1061500902697748e+01  2.1045583371682227e+01  2.1042381995464773e+01  2.1732423510920825e+01  2.1776547641987456e+01  2.1904351393036571e+01  2.2105850287639807e+01  2.2359646937927252e+01  2.2638497165138102e+01  2.2903894823474257e+01  2.3125012143246746e+01  2.3268312174385169e+01  2.3322418788595989e+01  2.3270388452645388e+01  2.3139601516178995e+01  2.2951935456234626e+01  2.2738431913214480e+01  2.2527005643758415e+01  2.2326626547936105e+01  2.2136255334848034e+01  2.1954327630804915e+01  2.1769743539642512e+01  2.1581409891619728e+01  2.1396494114667359e+01  2.1215464527421677e+01  2.1051815594365678e+01  2.0912892368357063e+01  2.0808181802054492e+01  2.0743618932690527e+01  2.0720914132032902e+01  2.0351896792698742e+01  2.0352714981998265e+01  2.0360646836825467e+01  2.0383092910301734e+01  2.0418855401490280e+01  2.0468647938558437e+01  2.0534232848316769e+01  2.0618031762450290e+01  2.0723658690542681e+01  2.0855036887191680e+01  2.1017049332427906e+01  2.1211985066377366e+01  2.1437593573140571e+01  2.1697495803320969e+01  2.1985785024230200e+01  2.2310767590509162e+01  2.2665083955045027e+01  2.3044745959695003e+01  2.3431466684750266e+01  2.3807716983347927e+01  2.4137077933886342e+01  2.4405732367080613e+01  2.4579222497357286e+01  2.4670001624172706e+01  2.4680830269161795e+01  2.4643286691965411e+01  2.4601971473236393e+01  2.4583816968020887e+01  2.4736063430088702e+01  2.4806458575927838e+01  2.5003650923563534e+01  2.5332325375621199e+01  2.5808848888097714e+01  2.6455180961369447e+01  2.7261933564280142e+01  2.8229135445129170e+01  2.9315001627231617e+01  3.0497225479388330e+01  3.1695701725569069e+01  3.2839768738709509e+01  3.3871860643665336e+01  3.4721665560993586e+01  3.5371067663714918e+01  3.5797818595429725e+01  3.6027223253804429e+01  3.6076682512603369e+01  3.5972521711696594e+01  3.5756243281464251e+01  3.5449663201888320e+01  3.5079509978676903e+01  3.4685228942846472e+01  3.4306251238275230e+01  3.3982066297071945e+01  3.3764638529212263e+01  3.3677821359700566e+01  3.3677531624157304e+01  3.7032257961923619e+01  3.7057791790035608e+01  3.7136686532171588e+01  3.7266056308025895e+01  3.7452723325916644e+01  3.7710901162892931e+01  3.8073430930728534e+01  3.8582600587071859e+01  3.9284303786976331e+01  4.0201541365308195e+01  4.1374143260721752e+01  4.2780782438087485e+01  4.4393630725277688e+01  4.6127509805461713e+01  4.7919734332642982e+01  4.9717514777328461e+01  5.1517333305235937e+01  5.3352100303999300e+01  5.5273602333707068e+01  5.7264539148184177e+01  5.9300203567320686e+01  6.1291364225899372e+01  6.3157253668802838e+01  6.4782017510919587e+01  6.6018133099720828e+01  6.6811556021578284e+01  2.2656557501807065e+01  2.2874834009853494e+01  2.3159485588277011e+01  2.3517317156678281e+01  2.3962077378677638e+01  2.4525280221765097e+01  2.5242240522147192e+01  2.6135853605821605e+01  2.7237822209841372e+01  2.8520603587353630e+01  2.9984490429800609e+01  3.1617875448619856e+01  3.3377651425664070e+01  3.5250547926244707e+01  3.7209652287845486e+01  3.9242749935287129e+01  4.1298760947616564e+01  4.3347726562459542e+01  4.5286914861614854e+01  4.7052087131905829e+01  4.8484420902370339e+01  4.9526295638758775e+01  5.0071664427088180e+01  5.0104829786086597e+01  4.9598450836218625e+01  4.8638644662164907e+01  4.7298340277909716e+01  4.5698216644258643e+01  4.3975068150503283e+01  4.2228312575038167e+01  4.0531535055060019e+01  3.8863299403821237e+01  3.7264925381625275e+01  3.5707247800276456e+01  3.4178058085151477e+01  3.2697787416723095e+01  3.1254620451177612e+01  2.9909123617749604e+01  2.8660710470958758e+01  2.7546884665859125e+01  2.6556090622693628e+01  2.5694194902045179e+01  2.4945679143650366e+01  2.4313396554170822e+01  2.3771508253439869e+01  2.3321426050969098e+01  2.2962981151221999e+01  2.2694258364532480e+01  2.2516469453271469e+01  2.2429051190121115e+01  2.2427986330522931e+01  2.2506412830982114e+01  7.0537553831270671e+01  2.1376794230085167e+01  2.0523034115911159e+01  3.5316407337949059e+01  7.2657320924721532e+01  2.1144212703496461e+01  2.0403262931868920e+01  3.4210990500624284e+01  2.5890250204657029e+01  3.6883586041048538e+01  5.4050108433493961e+01  2.4436288055818469e+01  2.1971059554277428e+01  3.6655452082432163e+01  6.8302235949097962e+01  4.1955422149345658e+01  2.0650236511229458e+01  2.7199850098544530e+01  2.1608069901168644e+01  2.2806311735644165e+01  3.6436425541705717e+01  3.2530056120980191e+01  2.1337896901885699e+01  3.6843792381318401e+01  6.6422726529511650e+01  2.8549644416441492e+01  3.6539675396265572e+01  3.2903644387719581e+01  4.8954221614930951e+01  2.1954855110210570e+01  2.4335603222677427e+01  6.0609025794284648e+01  2.0805087798351888e+01  2.3051825395696170e+01  2.2158674450383330e+01  3.7226924042097835e+01  2.3894742403425784e+01  3.9469388142139124e+01  5.1825329571516320e+01  2.5226723192304242e+01  2.5531498702553431e+01  2.2398979628190617e+01  3.9669567181210247e+01  3.5892779767190817e+01  2.5893004684120310e+01  5.3098106837896466e+01  3.5772561831148195e+01  2.1580489344404132e+01  6.9090685514150820e+01  2.0623686446621196e+01  3.8256199830263867e+01  2.2192554737502526e+01  2.5430126155731564e+01  2.6982437542966345e+01  3.7759537437327715e+01  5.7098349172235324e+01  3.5452064887243978e+01  5.0707180321953466e+01  2.4756859883724729e+01  3.7204013995509186e+01  2.3332676801006656e+01  2.2463465461714804e+01  4.9258742759181068e+01  4.3038211588178584e+01  2.4654313524307234e+01  2.4822716210448551e+01  5.6969821964947386e+01  3.4676822225250135e+01  3.4366951681856214e+01  2.1816703055990271e+01  2.3394784257527569e+01  2.9581466947931382e+01  4.5086857161378454e+01  4.6352292198982873e+01  2.3411332621463089e+01  2.3737617630570707e+01  2.9291511695306891e+01  2.1708766352420731e+01  2.3994366901329339e+01  2.2854251790493858e+01  3.7192732366141627e+01  4.6270445820141184e+01  3.0575567781868809e+01  3.1011214070746544e+01  3.5240273237778560e+01  2.1039901381042174e+01  2.1040289734193948e+01  2.7014505790037251e+01  6.4232796368027707e+01  3.6794879053660516e+01  2.2251511924559807e+01  3.6429719038895534e+01  6.3172739136927504e+01  3.7074485455749851e+01  2.1761885284457875e+01  2.2491839459247288e+01  2.0742841007038169e+01  6.6957257848039760e+01  2.1363704159453714e+01  2.0501565528220585e+01  7.0985241489961240e+01  3.5081725022529440e+01  2.3556645077170764e+01  2.1625403416210368e+01  3.5757610990015642e+01  2.2349453434511069e+01  2.4125493026419981e+01  3.3467252761406883e+01  6.0207012813509643e+01  2.1896828456443664e+01  4.8348128236791538e+01  3.7584917531809104e+01  3.6038839970155408e+01  6.7242368773058473e+01  2.0776811732987568e+01  3.9009244249372344e+01  5.4339643941323907e+01  2.5192277736404087e+01  2.1366590504784586e+01  5.2067072539460483e+01  3.7434762507136377e+01  2.7052636088895387e+01  2.7349581634781327e+01  2.8681118813751333e+01  4.1136420840698712e+01  2.3031124838266063e+01  4.2982641792731194e+01  2.2798409360918502e+01  2.6000248179007460e+01  2.8289292696969657e+01  3.2436576619183398e+01  2.5639853484562273e+01  2.1410419610198758e+01  3.1534116319933741e+01  3.6132998342806168e+01  4.9567495010040638e+01  3.3044779897000460e+01  5.9878610907130202e+01  2.2861890843952839e+01  2.4568809259838996e+01  3.9096814521839832e+01  6.8146495954495563e+01  2.3174803646451416e+01  2.1680785402749805e+01  3.6315326828925393e+01  2.5282954526121962e+01  3.5898730590954436e+01  2.1499203876111565e+01  2.3677430745669554e+01  2.0599969112159396e+01  3.8683121133159993e+01  2.4465489175729111e+01  2.4652962457375754e+01  3.7726967386171523e+01  6.9382548571246218e+01  2.2205535482053644e+01  2.2343594114698284e+01  2.2041743062661794e+01  4.1259661462369863e+01  5.2124347015657015e+01  3.8032754293388287e+01  5.0696671247832292e+01  3.7033554293311816e+01  3.7784485174661860e+01  3.6665590687936330e+01  2.3428531891141432e+01  2.3921232613361951e+01  2.4786326658619828e+01  2.4821358800405640e+01  2.5356364254907639e+01  2.0589482719057354e+01  3.6854334284087670e+01  2.0458968366318942e+01  2.1689449201148989e+01  6.7452675309920124e+01  2.1069108059586981e+01  7.3334020522177497e+01  2.1252783644211299e+01  2.1216988885590954e+01  7.1674236883170011e+01  2.0365331677530495e+01  3.3825571324293470e+01  2.0699113547632503e+01  3.4734600085399428e+01  3.4514118503807566e+01  5.0145179597008102e+01  4.0845834915452073e+01  3.6793155987650032e+01  5.1271276614912296e+01  2.6032607821695795e+01  2.0872697746766956e+01  3.4530914523090217e+01  5.6393318559726367e+01  2.1879112487158654e+01  2.1973124708060649e+01  2.6963330333328802e+01  2.0673601296579200e+01  2.5018268458337364e+01  3.6171728584179746e+01  3.7989017372859742e+01  5.3814738222854331e+01  6.3131989733347268e+01  3.0934655362436519e+01  3.5933841495679061e+01  2.4485984793652573e+01  2.3951442480451529e+01  2.5403290202180738e+01  2.2652619989411328e+01  2.2716473943923056e+01  2.0436309245001432e+01  7.2085073283411191e+01  6.5367202994434678e+01  2.1586319327108058e+01  3.5483107086756043e+01  5.6338049943665609e+01  2.2552918419942305e+01  3.4220611843528687e+01  2.2285493086467799e+01  2.1959433924406909e+01  2.5544289974279440e+01  4.4045944899289360e+01  2.3224588429046889e+01  2.9485787931670906e+01  7.2998840793273317e+01  2.1125491483550459e+01  2.0384391170490630e+01  3.4015560604382479e+01  2.9890066330736474e+01  2.2419085905371375e+01  4.0114908438237627e+01  3.5417159734804912e+01  3.5623314519399791e+01  2.1524497109468300e+01  2.1462928823550016e+01  3.1605477024135805e+01  6.8814145981936463e+01  6.7804544882128013e+01  6.9818592476916336e+01  4.1200109578401957e+01  4.0709181631327141e+01  6.5622780543670004e+01  2.6715669400795484e+01  3.7444643242515717e+01  3.6151173913074850e+01  2.2242362907583200e+01  2.6427864959247000e+01  2.4626934443072379e+01  4.5135703779218865e+01  2.3486066404907216e+01  2.0556062793822516e+01  2.2500173156915274e+01  2.2200991101986652e+01  3.2988556561679381e+01  2.4664930918083133e+01  2.3076755066748163e+01  3.7374547165888565e+01  3.7019729137219343e+01  2.3030958925729070e+01  2.3294344693086689e+01  4.7664093588969102e+01  4.8768885005485181e+01  2.6307164900267178e+01  2.1166544938229553e+01  2.4847778070522338e+01  2.9269020228318215e+01  5.0866180338136360e+01  3.2035557929742865e+01  5.8494358802350327e+01  3.4298439712278714e+01  3.5308444302209153e+01  3.6566776875875362e+01  5.2142647174920185e+01  5.4628504716060753e+01  3.5972125077205199e+01  2.4535440135641320e+01  2.4596986297703950e+01  5.2282980769298284e+01  3.7261549448367589e+01  5.0198785733440225e+01  5.8105892965656416e+01  3.5018059871766916e+01  3.8557653016967272e+01  2.5265611361511226e+01  2.2674907066378601e+01  2.2649917662512582e+01  4.4893508446619059e+01  4.4724428334137208e+01  6.2379222149203606e+01  2.2535360206548813e+01  2.2397895340682261e+01  2.2093566376513863e+01  4.3304577947302235e+01  2.3153190205816301e+01  2.5970834035305511e+01  4.3050646287468069e+01  2.6801545929567887e+01  2.7616987448668741e+01  2.5030814905740364e+01  3.8218659379129782e+01  3.7552215932306837e+01  2.6012794349932076e+01  2.8102509943403319e+01  2.0703063477968772e+01  6.5238188652271120e+01  2.3294053546846058e+01  3.4551539980105929e+01  2.1106477606593494e+01  2.0922378408480881e+01  2.3843845962705860e+01  2.3216484103309224e+01  2.2710371753505694e+01  3.6193079026007808e+01  4.6261098812581068e+01  4.7372868880904839e+01  2.3672396774295375e+01  2.3887167418444815e+01  3.0126661811846656e+01  3.2928337957957517e+01  3.6721177294011838e+01  3.1072482884960838e+01  2.2241444748842589e+01  2.2280184608752464e+01  2.1782836267640395e+01  3.6133931052597489e+01  3.4291775129745226e+01  2.0352299727133101e+01  2.1043894821632428e+01  7.3568942621725327e+01  3.3676743547389393e+01  3.8244615724513537e+01  3.0737896898507120e+01  4.7108265116143620e+01  2.7770689695427798e+01  2.3054652626401378e+01  2.2564677079179937e+01  3.6822226663762777e+01  3.7590626825180372e+01  5.0698890474216370e+01  2.3751111048840407e+01  2.1212188823328606e+01  2.1107227528431984e+01  2.0940237597734821e+01  2.1225677008696884e+01  2.4088137614315603e+01  4.7695624734153142e+01  4.0185203148896562e+01  2.4695176823084264e+01  2.4602393303621586e+01  2.5016234517028181e+01  2.3739764688356178e+01  2.2357251401060626e+01  4.3067290692782592e+01  4.2448099610136801e+01  6.1681196065895229e+01  4.9653842257193972e+01  2.9715835876936872e+01  6.4876037975922742e+01  3.7389605587312246e+01  3.1836551043890378e+01  2.3630959219606705e+01  6.7809953065712250e+01  3.9884164749209482e+01  2.1788452785331380e+01  2.1864391583475339e+01  2.0672909636216847e+01  3.6725142082169619e+01  5.8991628734571449e+01  3.3796501080205509e+01  3.6504960983452420e+01  3.6781053386800650e+01  3.6616854487154278e+01  4.6975588344785919e+01  2.2987675456956843e+01  6.9956640189898209e+01  2.0877676138646986e+01  5.0422755857693879e+01  2.8582098541443866e+01  3.6181087673271485e+01  2.1555557004493853e+01  2.1997338451731963e+01  2.6587629748363266e+01  4.9194600583942282e+01  2.4319508541883245e+01  5.6178574902344941e+01  2.3228037289059294e+01  2.0685246624683494e+01  3.7249556107545388e+01  2.8404232814893756e+01  4.8968507152212467e+01  2.2082732674465234e+01  3.7220919014750891e+01  2.1072150357371971e+01  3.3782041698733423e+01  7.3401178747683204e+01  2.0361527959867566e+01  3.5215612253759211e+01  2.3969644719454184e+01  2.0999257315514473e+01  2.2828029905951329e+01  3.7166262760528525e+01  2.7930499076968605e+01  2.1989460341050375e+01  2.4151208209546400e+01  6.6225031548460819e+01  3.7987464727594727e+01  3.6844526525311672e+01  3.6475378005288960e+01  2.3494733500983401e+01  3.0845496454334175e+01  3.2317579640025492e+01  3.7018704675343422e+01  2.1815782446663324e+01  3.6528979823687131e+01  2.3422236248758679e+01  3.5657020377534899e+01  5.4219075298233356e+01  3.9669514706397194e+01  2.1613778227760925e+01  5.5449770256547282e+01  2.6187990881818351e+01  2.1488813981875328e+01  2.1933542846121995e+01  2.1864665003634762e+01  2.5114656445843035e+01  2.5100086688100088e+01  2.0741119583362320e+01  3.6464658499500501e+01  5.8480009333744512e+01  3.3456113053156180e+01  2.5645430587028741e+01  2.2408247816129315e+01  3.9236115770952956e+01  3.6307034711615067e+01  2.0621161360029660e+01  5.2905575775738512e+01  3.6299223448671938e+01  3.7001747438866708e+01  2.4710114519357617e+01  3.7389009606283082e+01  3.5829560890563236e+01  6.1051194723071184e+01  2.1725276396015953e+01  3.5764994218919455e+01  3.6762787887037383e+01  2.1817208446449978e+01  2.1653997409047509e+01  2.1657430140281274e+01  2.0684918566439105e+01  6.9009590999242448e+01  3.0571959454854209e+01  5.3679579729979366e+01  2.4949281095921279e+01  3.6702034780677330e+01  3.3805288592021739e+01  2.9646101903919924e+01  4.0072670955656726e+01  5.0999351183829965e+01  5.5234062794047041e+01  2.2515462008818158e+01  3.4798045906072559e+01  2.1343955414736140e+01  2.1318746432874516e+01  3.8163969120177931e+01  2.7825519374928597e+01  6.4066536152868039e+01  2.2206507159306959e+01  6.2016750968562413e+01  6.3467982597189376e+01  2.0797469238887032e+01  2.0726553053110507e+01  6.7072317531225551e+01  6.7254310270418401e+01  4.5377014963451288e+01  2.7814721675713130e+01  2.3700527920643406e+01  2.3653937425268456e+01  2.7914497727699118e+01  2.6481270175991181e+01  2.4722667876141728e+01  2.0577757534121364e+01  2.4862358569143804e+01  2.9552183297224811e+01  5.1047380197838443e+01  4.7947409682063423e+01  2.3498799204455725e+01  2.3089765648828813e+01  2.4727957553628549e+01  2.7417534915339569e+01  2.2203951838183354e+01  5.0260244979316248e+01  3.8430904198453895e+01  3.5990942778543051e+01  3.9465407707191488e+01  3.8959934488194136e+01  5.3154636579170983e+01  2.0490215735983735e+01  7.1116368948803753e+01  7.0604343726518877e+01  7.0651900396645360e+01  2.0540309535250394e+01  2.0470112719431242e+01  2.1302474140637703e+01  3.5719175798566454e+01  2.1608293047425526e+01  4.1597496886812209e+01  2.2053365943928966e+01  2.1468040511564290e+01  2.1378217291749603e+01  3.5442103251690035e+01  3.5023805668610954e+01  3.5247626302610321e+01  2.4701196543917813e+01  7.1540101917563987e+01  3.4812491282831573e+01  2.1278644212812793e+01  2.0862091314323461e+01  3.5183329702105851e+01  2.5778741564356991e+01  3.3519789077545241e+01  5.2563200381525363e+01  3.8399426788170935e+01  2.1718310055155211e+01  3.6983987567164526e+01  2.2553722056854664e+01  2.1710956785545630e+01  2.1790873631723844e+01  2.1439674009767355e+01  5.7828411818373482e+01  2.5630168154107853e+01  6.6729053645580777e+01  2.1532807075888947e+01  3.5977046820209864e+01  2.1999632773786630e+01  4.0125303462873930e+01  3.5228936688232437e+01  2.0511291299030368e+01  2.6386682639057511e+01  6.6467299337628916e+01  2.2113606797951554e+01  2.1048277011304179e+01  2.3373060872845461e+01  4.8013618648826338e+01  3.3991681945577042e+01  2.2830692915920999e+01  2.6434849196957870e+01  2.4871499353801994e+01  2.4201262761675320e+01  5.8752852338740347e+01  4.6323386795090904e+01  3.2316041165461556e+01  2.4832193503555754e+01  2.2838184860802411e+01  2.4154888492480524e+01  2.5107118965894866e+01  2.5328138518304453e+01  3.5981951883906426e+01  3.7715012519360208e+01  3.3158311821254621e+01  2.1725264527077517e+01  3.6935778989286838e+01  2.2114579582696191e+01  5.3192702374571887e+01  3.7226942016188104e+01  3.7921144665362718e+01  3.7788848123994853e+01  3.9242663091279958e+01  2.3246364321524425e+01  2.9007562138360463e+01  2.2431703377613264e+01  2.2536417726414253e+01  2.2296713469066084e+01  2.6267150544244629e+01  2.0745671784817233e+01  2.1716799710148059e+01  2.7629698804216751e+01  6.6829037325613982e+01  6.8265758787253631e+01  6.1587693084345190e+01  2.6898729768824211e+01  3.4357308312758441e+01  3.3346789168674881e+01  2.3375611816249439e+01  2.4009759662428124e+01  5.9691071377251198e+01  4.7934574142919480e+01  2.0783599835869055e+01  3.9650257786775953e+01  4.1554332137539369e+01  2.2770461396234836e+01  5.7663216720124773e+01  2.3194275630382300e+01  4.2136173196406737e+01  2.2950329083789509e+01  4.2534981605740597e+01  2.8414954610968692e+01  2.9013672015623879e+01  2.4429492098108280e+01  4.9573948728835376e+01  2.4599117455124745e+01  2.2836744363290819e+01  2.4590436028397921e+01  2.4159697840844199e+01  4.9587313228415447e+01  2.5475200294447859e+01  2.7159782889979816e+01  4.4409344151658580e+01  2.7591619923893830e+01  2.2671960645254089e+01  4.1750612230608162e+01  2.0467459932561042e+01  7.1341477415089116e+01  3.915