<?xml version="1.0"?>
<VTKFile type="UnstructuredGrid"  version="0.1"  >
<UnstructuredGrid>
<Piece  NumberOfPoints="2331" NumberOfCells="4248">
<Points>
<DataArray  type="Float64"  NumberOfComponents="3"  format="ascii">0 0.3 0  0 0 0  0.04999999999999999 0 0  0.0514582251803892 0.02410733605106462 0  0.0558116365147896 0.04786313285751154 0  0.06299675146291706 0.07092097740850717 0  0.07290879486935808 0.09294463440875382 0  0.08540322682126872 0.1136129493462312 0  0.1002978503657798 0.132624531648159 0  0.117375468351841 0.1497021496342203 0  0.1363870506537689 0.1645967731787313 0  0.1570553655912463 0.177091205130642 0  0.1790790225914929 0.187003248537083 0  0.2021368671424885 0.1941883634852104 0  0.2258926639489354 0.1985417748196108 0  0.25 0.2 0  0.2741073360510646 0.1985417748196108 0  0.2978631328575116 0.1941883634852104 0  0.3209209774085071 0.187003248537083 0  0.3429446344087537 0.177091205130642 0  0.3636129493462312 0.1645967731787313 0  0.3826245316481591 0.1497021496342202 0  0.3997021496342202 0.132624531648159 0  0.4145967731787313 0.1136129493462312 0  0.427091205130642 0.09294463440875371 0  0.4370032485370829 0.07092097740850713 0  0.4441883634852104 0.04786313285751155 0  0.4485417748196108 0.02410733605106461 0  0.45 0 0  0.55 0 0  0.5514582251803892 0.02410733605106462 0  0.5558116365147896 0.04786313285751154 0  0.5629967514629171 0.07092097740850717 0  0.5729087948693581 0.09294463440875382 0  0.5854032268212688 0.1136129493462312 0  0.6002978503657798 0.132624531648159 0  0.617375468351841 0.1497021496342203 0  0.6363870506537689 0.1645967731787313 0  0.6570553655912463 0.177091205130642 0  0.6790790225914929 0.187003248537083 0  0.7021368671424885 0.1941883634852104 0  0.7258926639489354 0.1985417748196108 0  0.75 0.2 0  0.7741073360510646 0.1985417748196108 0  0.7978631328575116 0.1941883634852104 0  0.8209209774085071 0.187003248537083 0  0.8429446344087537 0.177091205130642 0  0.8636129493462312 0.1645967731787313 0  0.8826245316481591 0.1497021496342202 0  0.8997021496342202 0.132624531648159 0  0.9145967731787312 0.1136129493462312 0  0.927091205130642 0.09294463440875371 0  0.9370032485370829 0.07092097740850713 0  0.9441883634852104 0.04786313285751155 0  0.9485417748196108 0.02410733605106461 0  0.95 0 0  1 0 0  1 0.3 0  0.9758926639489353 0.3014582251803892 0  0.9521368671424885 0.3058116365147896 0  0.9290790225914928 0.3129967514629171 0  0.9070553655912461 0.3229087948693581 0  0.8863870506537688 0.3354032268212687 0  0.867375468351841 0.3502978503657798 0  0.8502978503657798 0.367375468351841 0  0.8354032268212687 0.3863870506537689 0  0.822908794869358 0.4070553655912464 0  0.8129967514629171 0.4290790225914929 0  0.8058116365147896 0.4521368671424885 0  0.8014582251803892 0.4758926639489354 0  0.8 0.4999999999999999 0  0.8014582251803892 0.5241073360510646 0  0.8058116365147896 0.5478631328575115 0  0.8129967514629171 0.5709209774085071 0  0.8229087948693581 0.5929446344087538 0  0.8354032268212688 0.6136129493462312 0  0.8502978503657798 0.632624531648159 0  0.867375468351841 0.6497021496342202 0  0.8863870506537689 0.6645967731787313 0  0.9070553655912463 0.677091205130642 0  0.9290790225914929 0.6870032485370829 0  0.9521368671424885 0.6941883634852104 0  0.9758926639489354 0.6985417748196108 0  1 0.7 0  1 1 0  0.95 1 0  0.9485417748196108 0.9758926639489353 0  0.9441883634852104 0.9521368671424885 0  0.9370032485370829 0.9290790225914928 0  0.927091205130642 0.9070553655912463 0  0.9145967731787312 0.8863870506537688 0  0.8997021496342201 0.8673754683518409 0  0.882624531648159 0.8502978503657798 0  0.863612949346231 0.8354032268212686 0  0.8429446344087537 0.822908794869358 0  0.8209209774085071 0.8129967514629171 0  0.7978631328575114 0.8058116365147896 0  0.7741073360510646 0.8014582251803892 0  0.75 0.8 0  0.7258926639489353 0.8014582251803892 0  0.7021368671424885 0.8058116365147896 0  0.6790790225914928 0.8129967514629171 0  0.6570553655912461 0.8229087948693581 0  0.6363870506537688 0.8354032268212688 0  0.617375468351841 0.8502978503657798 0  0.6002978503657798 0.867375468351841 0  0.5854032268212687 0.8863870506537689 0  0.572908794869358 0.9070553655912463 0  0.5629967514629171 0.9290790225914929 0  0.5558116365147896 0.9521368671424885 0  0.5514582251803892 0.9758926639489355 0  0.55 0.9999999999999999 0  0.45 0.9999999999999999 0  0.4485417748196108 0.9758926639489353 0  0.4441883634852104 0.9521368671424885 0  0.4370032485370829 0.9290790225914928 0  0.427091205130642 0.9070553655912463 0  0.4145967731787313 0.8863870506537688 0  0.3997021496342201 0.8673754683518409 0  0.382624531648159 0.8502978503657798 0  0.363612949346231 0.8354032268212686 0  0.3429446344087536 0.822908794869358 0  0.3209209774085071 0.8129967514629171 0  0.2978631328575115 0.8058116365147896 0  0.2741073360510646 0.8014582251803892 0  0.25 0.8 0  0.2258926639489353 0.8014582251803892 0  0.2021368671424885 0.8058116365147896 0  0.1790790225914928 0.8129967514629171 0  0.1570553655912462 0.8229087948693581 0  0.1363870506537688 0.8354032268212688 0  0.117375468351841 0.8502978503657798 0  0.1002978503657797 0.867375468351841 0  0.08540322682126869 0.8863870506537689 0  0.07290879486935797 0.9070553655912463 0  0.06299675146291703 0.9290790225914929 0  0.05581163651478957 0.9521368671424885 0  0.0514582251803892 0.9758926639489355 0  0.04999999999999999 0.9999999999999999 0  0 1 0  -0 0.7000000000000001 0  0.0241073360510646 0.6985417748196108 0  0.04786313285751161 0.6941883634852104 0  0.07092097740850711 0.6870032485370829 0  0.09294463440875372 0.677091205130642 0  0.1136129493462312 0.6645967731787312 0  0.1326245316481591 0.6497021496342202 0  0.1497021496342202 0.632624531648159 0  0.1645967731787313 0.6136129493462312 0  0.177091205130642 0.5929446344087537 0  0.187003248537083 0.5709209774085071 0  0.1941883634852104 0.5478631328575115 0  0.1985417748196108 0.5241073360510646 0  0.2 0.5 0  0.1985417748196108 0.4758926639489353 0  0.1941883634852104 0.4521368671424885 0  0.1870032485370829 0.4290790225914928 0  0.177091205130642 0.4070553655912463 0  0.1645967731787313 0.3863870506537688 0  0.1497021496342202 0.3673754683518409 0  0.132624531648159 0.3502978503657798 0  0.113612949346231 0.3354032268212686 0  0.09294463440875361 0.322908794869358 0  0.07092097740850711 0.3129967514629171 0  0.04786313285751148 0.3058116365147896 0  0.02410733605106464 0.3014582251803892 0  0.6985417748196108 0.5241073360510646 0  0.7 0.5 0  0.6985417748196108 0.4758926639489353 0  0.6941883634852104 0.4521368671424885 0  0.6870032485370829 0.4290790225914928 0  0.677091205130642 0.4070553655912463 0  0.6645967731787312 0.3863870506537688 0  0.6497021496342201 0.3673754683518409 0  0.632624531648159 0.3502978503657798 0  0.613612949346231 0.3354032268212686 0  0.5929446344087537 0.322908794869358 0  0.5709209774085071 0.3129967514629171 0  0.5478631328575114 0.3058116365147896 0  0.5241073360510646 0.3014582251803892 0  0.4999999999999999 0.3 0  0.4758926639489353 0.3014582251803892 0  0.4521368671424885 0.3058116365147896 0  0.4290790225914928 0.3129967514629171 0  0.4070553655912462 0.3229087948693581 0  0.3863870506537688 0.3354032268212687 0  0.367375468351841 0.3502978503657798 0  0.3502978503657798 0.367375468351841 0  0.3354032268212687 0.3863870506537689 0  0.322908794869358 0.4070553655912464 0  0.3129967514629171 0.4290790225914929 0  0.3058116365147896 0.4521368671424885 0  0.3014582251803892 0.4758926639489354 0  0.3 0.4999999999999999 0  0.3014582251803892 0.5241073360510646 0  0.3058116365147896 0.5478631328575115 0  0.3129967514629171 0.5709209774085071 0  0.3229087948693581 0.5929446344087538 0  0.3354032268212687 0.6136129493462312 0  0.3502978503657798 0.632624531648159 0  0.367375468351841 0.6497021496342202 0  0.3863870506537689 0.6645967731787313 0  0.4070553655912463 0.677091205130642 0  0.4290790225914929 0.6870032485370829 0  0.4521368671424885 0.6941883634852104 0  0.4758926639489354 0.6985417748196108 0  0.4999999999999999 0.7 0  0.5241073360510646 0.6985417748196108 0  0.5478631328575116 0.6941883634852104 0  0.5709209774085071 0.6870032485370829 0  0.5929446344087537 0.677091205130642 0  0.6136129493462312 0.6645967731787312 0  0.6326245316481591 0.6497021496342202 0  0.6497021496342202 0.632624531648159 0  0.6645967731787312 0.6136129493462312 0  0.677091205130642 0.5929446344087537 0  0.6870032485370829 0.5709209774085071 0  0.6941883634852104 0.5478631328575115 0  0 0.15 0  1 0.15 0  1 0.85 0  0 0.8500000000000001 0  0 0.075 0  1 0.075 0  1 0.925 0  0 0.925 0  0.5 0.8127595604293815 0  0.5069440078039168 0.190422209288238 0  0.25 0.3127595604293815 0  0.756944007803917 0.3095777907117619 0  0.756944007803917 0.6904222092882382 0  0.25 0.6872404395706185 0  0 0.225 0  0.4255768646051012 0.2241073097134061 0  1 0.7749999999999999 0  0.6773391559270888 0.2766774022734219 0  1 0.225 0  0.6755768646051011 0.7241073097134062 0  0 0.7750000000000001 0  0.5818971135297744 0.2287925518358889 0  0.8318971135297746 0.728792551835889 0  0.1659156081861886 0.7301636995921477 0  0.08376842746533225 0.2299656297760495 0  0.4236002201977974 0.7746535834185855 0  0.0840843918138115 0.7698363004078523 0  0.3340843918138113 0.7301636995921477 0  0.3340843918138114 0.2698363004078523 0  0.9159156081861887 0.2301636995921477 0  0.5840843918138116 0.7698363004078522 0  0.1659156081861887 0.2698363004078523 0  0.9162315725346678 0.7700343702239506 0  0.8340843918138114 0.2698363004078523 0  0.75 0.6146645247768686 0  0.5 0.1125158665330878 0  0.75 0.3874841334669124 0  0.2504983345544904 0.6122915843562002 0  0.2504983345544902 0.3877084156437999 0  0.5 0.8879783056303169 0  0.7005361650220154 0.3333055947145943 0  0.70416808765371 0.6599554817221275 0  0.449930214263529 0.1678187287522426 0  0.2247310981387008 0.7415600637745463 0  0.5155081196221678 0.7563797802146907 0  0.2752689018612993 0.2584399362254537 0  0.05605196690611226 0.8246131191226815 0  0.9439480330938878 0.1
[...]
<PointData  Scalars="Temperature"> 
<DataArray  type="Float64"  Name="Temperature"  format="ascii">1.2885614775780786e+02  1.4179917988394780e+02  1.4177279760397113e+02  1.4148218870219904e+02  1.4066866898902487e+02  1.3940182366156219e+02  1.3770613207153892e+02  1.3560106036777697e+02  1.3311221457429986e+02  1.3021142183472412e+02  1.2682487001943220e+02  1.2299257079618427e+02  1.1882208348620530e+02  1.1439670148655996e+02  1.0980011411393474e+02  1.0514741990059463e+02  1.0046646431776679e+02  9.5766735508129770e+01  9.1164587042485095e+01  8.6643197455003744e+01  8.2409140880619091e+01  7.8572227651821976e+01  7.5247498431928577e+01  7.2607103953241221e+01  7.0621719443057970e+01  6.9272265350702028e+01  6.8423964683392839e+01  6.7988537489320692e+01  6.7858676993910350e+01  6.6960045397385869e+01  6.6853104470251182e+01  6.6498568697758671e+01  6.5783163554291505e+01  6.4616510367517975e+01  6.2872290872232213e+01  6.0558303477016281e+01  5.7754664349708683e+01  5.4569843032003611e+01  5.1174125009841759e+01  4.7766405717176447e+01  4.4519704648035265e+01  4.1563668311027890e+01  3.8957870705409832e+01  3.6706643745563980e+01  3.4787849557593518e+01  3.3189049785582064e+01  3.1844935893152218e+01  3.0737267605471366e+01  2.9841894587342573e+01  2.9114117464799481e+01  2.8531755441341073e+01  2.8063321783271967e+01  2.7699511886270660e+01  2.7433376810121985e+01  2.7264354519052382e+01  2.7204379121897436e+01  2.7197599838719793e+01  2.9751416907102897e+01  2.9877944355507520e+01  3.0244223228362305e+01  3.0817258101858492e+01  3.1528429325298813e+01  3.2290768290902037e+01  3.2988043351272296e+01  3.3523745070370921e+01  3.3804833937950576e+01  3.3800742370120375e+01  3.3467793569489224e+01  3.2891215135356880e+01  3.2144758438323052e+01  3.1328205337902123e+01  3.0533116702500660e+01  2.9801344538102104e+01  2.9130548104452888e+01  2.8513936577949792e+01  2.7911138883025131e+01  2.7309333897722819e+01  2.6721079524300585e+01  2.6143764219527728e+01  2.5617195081247345e+01  2.5166375431971250e+01  2.4824041710908027e+01  2.4612426891418618e+01  2.4538089653217252e+01  2.3128941395452408e+01  2.3131357151129219e+01  2.3162524989073297e+01  2.3250363647047042e+01  2.3388685416301435e+01  2.3577849160022474e+01  2.3820119569855066e+01  2.4120475619010413e+01  2.4488430318116688e+01  2.4933667531573654e+01  2.5469471528534779e+01  2.6099850840066484e+01  2.6815143357482615e+01  2.7625439350350231e+01  2.8512263935486978e+01  2.9503209011422548e+01  3.0581178465223346e+01  3.1735327245579683e+01  3.2921311113002787e+01  3.4089324107428297e+01  3.5137261683514126e+01  3.6030210602021768e+01  3.6671225386020801e+01  3.7086946551725241e+01  3.7276086200401124e+01  3.7313091810712734e+01  3.7294364829854352e+01  3.7278239002286249e+01  3.7609443008311231e+01  3.7747806607585986e+01  3.8142964596001192e+01  3.8821487895035247e+01  3.9834553278676296e+01  4.1246984179052262e+01  4.3040498416948772e+01  4.5213054411187855e+01  4.7663276135400309e+01  5.0325438034814987e+01  5.3009550693234019e+01  5.5546844002705598e+01  5.7812067009515197e+01  5.9657055975867280e+01  6.1061969967487272e+01  6.2003765977401962e+01  6.2559827481951444e+01  6.2792204503267385e+01  6.2774362355523643e+01  6.2587178776152385e+01  6.2275165127485224e+01  6.1880284920979378e+01  6.1453684665588526e+01  6.1041746256657781e+01  6.0689460261470359e+01  6.0453711400804451e+01  6.0359806551892120e+01  6.0359373838482412e+01  6.4124490175887829e+01  6.4167506972617360e+01  6.4301859011733029e+01  6.4535609141635518e+01  6.4899863504745369e+01  6.5443450321164363e+01  6.6252209129736187e+01  6.7423897509386663e+01  6.9070947487684620e+01  7.1245243986257009e+01  7.4021537221199566e+01  7.7344508508383427e+01  8.1131962781833607e+01  8.5164900915685422e+01  8.9269724400096720e+01  9.3297902813330083e+01  9.7218975524336088e+01  1.0109698254473075e+02  1.0506027415215033e+02  1.0910514522246137e+02  1.1320709514950411e+02  1.1720584265010766e+02  1.2095124079674791e+02  1.2421532024937760e+02  1.2670046540354075e+02  1.2829678307333057e+02  3.0804790776361163e+01  3.1612032698805027e+01  3.2605814510944946e+01  3.3784252167782746e+01  3.5165380338279121e+01  3.6817532095601557e+01  3.8822700901711144e+01  4.1231622042709894e+01  4.4108423862082688e+01  4.7367454383993689e+01  5.0985626765896249e+01  5.4914783435994821e+01  5.9033148741846588e+01  6.3308072805369541e+01  6.7686232158224897e+01  7.2150882008868066e+01  7.6608938298455641e+01  8.1008923308667235e+01  8.5151448129250497e+01  8.8891260339042915e+01  9.1895265826015432e+01  9.4035924193549690e+01  9.5087794027739008e+01  9.4999507580865213e+01  9.3718435568148593e+01  9.1417793443481898e+01  8.8261658126339896e+01  8.4516024396230804e+01  8.0503607057940854e+01  7.6469667653013133e+01  7.2592426478620212e+01  6.8830587574262537e+01  6.5264201528776326e+01  6.1808801445370271e+01  5.8413804683523651e+01  5.5105462700385637e+01  5.1843169082494185e+01  4.8758612837160371e+01  4.5845222232346899e+01  4.3191207646507308e+01  4.0771955496928783e+01  3.8603689825853550e+01  3.6660254701356592e+01  3.4961421254931402e+01  3.3463418796024193e+01  3.2194710063327896e+01  3.1175785588325112e+01  3.0418720785269297e+01  2.9943257641636443e+01  2.9756349024826751e+01  2.9853324024422989e+01  3.0211894448088088e+01  1.3560606125993121e+02  2.8457904808959150e+01  2.3797752216909181e+01  6.2152564586711826e+01  1.3990967680064907e+02  2.7585954248041237e+01  2.3331881766296704e+01  6.0938251402384928e+01  3.9600471224217841e+01  6.6904661207142468e+01  1.0280540080323144e+02  3.7032764751350761e+01  2.8425381061927681e+01  6.3668282721926495e+01  1.3118530895520536e+02  7.7721009869918873e+01  2.4279728237713083e+01  4.4206214623511997e+01  2.9312090750388652e+01  3.0861233900190403e+01  6.3422858464220795e+01  5.7196647566485780e+01  2.6511411897832005e+01  6.3924250816634121e+01  1.2740532696617511e+02  4.5780934820919164e+01  6.3542630053181810e+01  5.5614456530558215e+01  9.2464964427771065e+01  3.0312675143361901e+01  3.5310409477256677e+01  1.1578348878796550e+02  2.4791538324047742e+01  3.3407438763380441e+01  2.9040516864631350e+01  6.7546628093232684e+01  3.5263145662450796e+01  6.9918060452126994e+01  9.8240152846920665e+01  3.8433267748037260e+01  3.9770332821375376e+01  2.9626046514540644e+01  7.2683667867213103e+01  6.2056413447969604e+01  3.9281784231203893e+01  1.0074675884467339e+02  6.2652397890893269e+01  2.9120549242479136e+01  1.3270937710719596e+02  2.4165524014332245e+01  6.9936119359300619e+01  2.9106182705099442e+01  3.9727730943018614e+01  4.2309969549168009e+01  6.5794097556102571e+01  1.0881373634882240e+02  6.1192406069344621e+01  9.6267628752478458e+01  3.6786537879728854e+01  6.7451082572877240e+01  3.3364873648554706e+01  3.0190254700747168e+01  9.2538888454298061e+01  7.8150968403609838e+01  3.7434662740246772e+01  3.7726013499974968e+01  1.0850740393409033e+02  5.9491034717667830e+01  6.1465554630876916e+01  2.8010043693854545e+01  3.4284801722157113e+01  5.0205700543010011e+01  8.4521315001090414e+01  8.6853095927929274e+01  3.2728139306259948e+01  3.3477081345104928e+01  4.9369440034861327e+01  2.7650228772472104e+01  3.5950200182006377e+01  3.1648263113808508e+01  6.7406765807226137e+01  8.5671203092041594e+01  5.0448635024893797e+01  5.1342737235997419e+01  6.3322233136089267e+01  2.5554010456712387e+01  2.5571390535909334e+01  4.2133838998149159e+01  1.2306992199469680e+02  6.3855199074926809e+01  3.1208424926065700e+01  6.3309148374355985e+01  1.2086426084510850e+02  6.4300162442133541e+01  2.9800976842116988e+01  3.1826995795869102e+01  2.4600382840539822e+01  1.2853588444201739e+02  2.8374072996750840e+01  2.3707652394799108e+01  1.3651326601094524e+02  6.1889050310592737e+01  3.4555094489609282e+01  2.7404219571261322e+01  6.4536947924905121e+01  2.9518800609518294e+01  3.4953623798805495e+01  5.6836588340438695e+01  1.1501859950711463e+02  3.0074008079040748e+01  9.1480905757396968e+01  6.5287868695065086e+01  6.2917830020429484e+01  1.2900560308136198e+02  2.4678803020702954e+01  6.8616507067731931e+01  1.0324922588381860e+02  3.8107708095665032e+01  2.6615812559229283e+01  9.8929895511763661e+01  6.5466903194024411e+01  4.3917126471941330e+01  4.4469013684132044e+01  4.6190412110724253e+01  7.6172249632145579e+01  3.1415723213831740e+01  7.9666052128686516e+01  3.0936547581675580e+01  4.0185630911519787e+01  4.5043125021086304e+01  5.6888692797124378e+01  4.0190633139609780e+01  2.6731537527339665e+01  5.4944367630136867e+01  6.2615680978297441e+01  9.3468359869820418e+01  5.5968985867147836e+01  1.1427036280433030e+02  3.2893850801602646e+01  3.5741881042602500e+01  7.1631994240038480e+01  1.3085387356677904e+02  3.3726864312410960e+01  2.9498493272146014e+01  6.3280728096955464e+01  3.7940238981237954e+01  6.2806079500426165e+01  2.8912251395346566e+01  3.5082961312240791e+01  2.4064969795644274e+01  7.0496811048886158e+01  3.6960768676845582e+01  3.7283571240830263e+01  6.8626776669129640e+01  1.3330426566952451e+02  2.9306097729417449e+01  2.9567100176473222e+01  2.8646966701510667e+01  7.3888964748822133e+01  9.8622200871075236e+01  6.6912237598816304e+01  9.6233614990927848e+01  6.4194435203915546e+01  6.8588776161405391e+01  6.6436920156235175e+01  3.3892350099657968e+01  3.5141451904167560e+01  3.7250950618766652e+01  3.7595941239570465e+01  3.8831424879371042e+01  2.4051333037125559e+01  6.3912932663247602e+01  2.3549748121954241e+01  2.9606129477995594e+01  1.2954653824480283e+02  2.7300143260832765e+01  1.4130096625172055e+02  2.7994881497617449e+01  2.7847507731360245e+01  1.3790274456984213e+02  2.3182150987777518e+01  6.0519500179949574e+01  2.4459460885520560e+01  6.1510495435113960e+01  6.1268422128897193e+01  9.4773767675643214e+01  7.3198793256206542e+01  6.3868029735912309e+01  9.7228182171979370e+01  4.0120462886609722e+01  2.5030169137122893e+01  5.9214158552915379e+01  1.0727807520393240e+02  2.8177158585954963e+01  2.8536275977942157e+01  4.1841598826639128e+01  2.4354965749527697e+01  3.7062540201037621e+01  6.5381614345657326e+01  6.6514606186869344e+01  1.0231414808493464e+02  1.2082581344670250e+02  5.3392355906708929e+01  6.4879378303666172e+01  3.7233869045369566e+01  3.5674971996831395e+01  3.7920926365602902e+01  3.0360439369960790e+01  3.0497658045557195e+01  2.3459075320343832e+01  1.3874430847231952e+02  1.2526422397040784e+02  2.7310495687926714e+01  6.1216681975014346e+01  1.0730803201288990e+02  3.2034024535989865e+01  6.1080673936481290e+01  2.9338135510501662e+01  3.0370350345964773e+01  3.9694637135448346e+01  8.2059722232761615e+01  3.2037554376317715e+01  4.7867827402533365e+01  1.4061430232687232e+02  2.7508979764170608e+01  2.3256643914281373e+01  6.0725732853855824e+01  4.8941934137193030e+01  2.9921405648425388e+01  7.3889104142219622e+01  6.2249634627196528e+01  6.2493546206083565e+01  2.8895284505061969e+01  2.8759066407835306e+01  5.2788039526842816e+01  1.3215047269699818e+02  1.3014806829436898e+02  1.3416731875577872e+02  7.5823444697634798e+01  7.4973176927185506e+01  1.2588080959365080e+02  4.1574720062254158e+01  6.4934436032725102e+01  6.2965447520356484e+01  3.1082864932268468e+01  4.2162440486280772e+01  3.7639865642365770e+01  8.4168752548966523e+01  3.2693708304255345e+01  2.3915825723085817e+01  2.9897196270667198e+01  2.9080838770178421e+01  5.8374063450563639e+01  3.7403487643389191e+01  3.3440790004347136e+01  6.7719826024322160e+01  6.7122521270303096e+01  3.2373702706232244e+01  3.3109225935888674e+01  8.9012287466729134e+01  9.1259469495263431e+01  4.1971459070208326e+01  2.5983148225419225e+01  3.7818251039527063e+01  4.9485365416050108e+01  9.6252839464754004e+01  5.3628337897423698e+01  1.1158540248883384e+02  5.8667708670454346e+01  6.0888788632616219e+01  6.3397447526359080e+01  9.8695554471433425e+01  1.0387908107726930e+02  6.2210326465692248e+01  3.6017585985740119e+01  3.6556718373254576e+01  9.9350778297947556e+01  6.4727847377107949e+01  9.5341033839898856e+01  1.1081185710872153e+02  6.0270159786593325e+01  6.7457537386633149e+01  3.8090309490363609e+01  3.0926594393141286e+01  3.0955542947825069e+01  8.2577892366280707e+01  8.1985360785859967e+01  1.1937472866141364e+02  3.0114224834361586e+01  2.9749902810668843e+01  2.8789525828292692e+01  8.0852709865535161e+01  3.2032548163206492e+01  3.9627026584989181e+01  8.0173748952523596e+01  4.1985060141293381e+01  4.3685639321866425e+01  3.8530851694824250e+01  6.9895799518309957e+01  6.8370142076700148e+01  4.1265583677031771e+01  4.6535359652041748e+01  2.4444615364642090e+01  1.2498474509965200e+02  3.3939912084105977e+01  6.1929693378637907e+01  2.5763063688910101e+01  2.5163104790684919e+01  3.5477371862470207e+01  3.3846327924049660e+01  3.2420408554212052e+01  6.2845633986848618e+01  8.7138938950276838e+01  8.9326306307107089e+01  3.3616087788341041e+01  3.4136566249927505e+01  4.9287280919914764e+01  5.8179074710825581e+01  6.6537273377378355e+01  5.3790698811843541e+01  3.1140619680274014e+01  2.9468205353600574e+01  2.9770562882460197e+01  6.3058316510763220e+01  6.1166227699640778e+01  2.3130153192623141e+01  2.7200794499815061e+01  1.4178809606643529e+02  6.0358576673386722e+01  6.9763973112148690e+01  5.2838897380393469e+01  8.8593516567747685e+01  4.4159770965488860e+01  3.1639253088712191e+01  3.2083726104979021e+01  6.6757441101947265e+01  6.8149724546587819e+01  9.5757245304326105e+01  3.5293236308359312e+01  2.6121201754213516e+01  2.5779152174769809e+01  2.5238889978347881e+01  2.6151626938682806e+01  3.4382071451406787e+01  8.9531374150740476e+01  7.1293613136225574e+01  3.7502796238551070e+01  3.7321741843712388e+01  3.8070489347210867e+01  3.3594893653859963e+01  2.9876339081223520e+01  7.8083440783592252e+01  7.6913010694020912e+01  1.1794952578157762e+02  9.4044871119916408e+01  4.8461255645952775e+01  1.2431951310421914e+02  6.5146139390690450e+01  5.3268021526334586e+01  3.4380162853959433e+01  1.3021723370873912e+02  7.2997130696621085e+01  2.7954992547477925e+01  2.8124639427897836e+01  2.4328334762616635e+01  6.3993357611427918e+01  1.1253853837026324e+02  5.7585948224121900e+01  6.3351213957700480e+01  6.3839373898936756e+01  6.3621506049765621e+01  8.7172363313782355e+01  3.2047460449853908e+01  1.3444291708937311e+02  2.5023858919776849e+01  9.4966277568362003e+01  4.7554204100973820e+01  6.3127831221753759e+01  2.9096851912005906e+01  2.8558430014584783e+01  4.2453319607287831e+01  9.3313202227530837e+01  3.5653405612201738e+01  1.0694725504274159e+02  3.3145440029895560e+01  2.4405445585622619e+01  6.4548754144647418e+01  4.7227080158256861e+01  9.2093142803753636e+01  3.0651666911599960e+01  6.7509626480060518e+01  2.7307951756044638e+01  6.0472446860356897e+01  1.4144230751035983e+02  2.3166565420406389e+01  6.0643755613822712e+01  3.5608200298218094e+01  2.5444666359766298e+01  3.2781966506009901e+01  6.4484064314404350e+01  4.6156425583726985e+01  3.0480120366700142e+01  3.4684021008619943e+01  1.2704909526002224e+02  6.6166559084209894e+01  6.3945781767146364e+01  6.3495107753176448e+01  3.4606018362625321e+01  5.1012505233230627e+01  5.4289265442734468e+01  6.4133138335419915e+01  2.9982554238092121e+01  6.3532512313323210e+01  3.4062188155335463e+01  6.4255899629879224e+01  1.0291373536602202e+02  7.0604556234076966e+01  2.7364641205764986e+01  1.0555203262532514e+02  3.9894285126922789e+01  2.6977219991369978e+01  2.8330170561238639e+01  2.8114888053273550e+01  3.8865525281631314e+01  3.8326546526911820e+01  2.4584679823846027e+01  6.6019455811683315e+01  1.1144592638208849e+02  5.6891730978597941e+01  3.9329908499225454e+01  2.9678153978805636e+01  6.9533887499380995e+01  6.3214402144612585e+01  2.4166712332455038e+01  1.0050478252184021e+02  6.2995533971794885e+01  6.7099211538054291e+01  3.7554607641388436e+01  6.7722738340320348e+01  6.4724435192431287e+01  1.1659452058497089e+02  2.9526795975680159e+01  6.2627722242882946e+01  6.3827480200427381e+01  2.9933606211456652e+01  2.9478037702347418e+01  2.9465572713953396e+01  2.4359068211117521e+01  1.3256261076813789e+02  5.2669111761260041e+01  1.0182009027966770e+02  3.7760764938634978e+01  6.6543981824634116e+01  6.0102666048797509e+01  5.0299931887709832e+01  7.3935924933824296e+01  9.6683668430437990e+01  1.0501280384291209e+02  3.1956358488412455e+01  6.1577160453241945e+01  2.8283998424301423e+01  2.6440934848094621e+01  6.6746669862179573e+01  4.3888792835219697e+01  1.2276617346743653e+02  3.1096588185677483e+01  1.1857473863100046e+02  1.2143616257638305e+02  2.4786337026639000e+01  2.4552886052863361e+01  1.2879897609483641e+02  1.2909198927782984e+02  8.4951350008371634e+01  4.4208265893031168e+01  3.4394754509904558e+01  3.4688993003427903e+01  4.4243264540320261e+01  4.0783065229182654e+01  3.7880862957546896e+01  2.4003431660652758e+01  3.7283754256625585e+01  4.8143132754223245e+01  9.6969464986122063e+01  8.9518916388069513e+01  3.4497567087382741e+01  3.2485553364346003e+01  3.7305580434698015e+01  4.3002741870885949e+01  2.9095100807110970e+01  9.5224858586105682e+01  6.9904070345073919e+01  6.2906837314590561e+01  6.9552057148931567e+01  6.8652405120389261e+01  1.0091998020778222e+02  2.3671148865364380e+01  1.3677212402234662e+02  1.3574122538475541e+02  1.3584637964154967e+02  2.3845529362328303e+01  2.3585406794577477e+01  2.6419415189602550e+01  6.1787031534307339e+01  2.7345667294986448e+01  7.4804682482706582e+01  2.8832119485706954e+01  2.8737693980967034e+01  2.8449618486102320e+01  6.2286817060687632e+01  6.1828582619861237e+01  6.2074949712396226e+01  3.7404443743632250e+01  1.3764156520410830e+02  6.1595367394130648e+01  2.8081839697051567e+01  2.4988074999022754e+01  6.3283040555897109e+01  3.9749853090064761e+01  5.9377629560514094e+01  9.9833417363822292e+01  6.7527512137962674e+01  2.9705206964601405e+01  6.4067545531571142e+01  3.0431469342288224e+01  2.7674508860175784e+01  2.7897472634548503e+01  2.6834712860582009e+01  1.1017696114557866e+02  3.9112219210863934e+01  1.2796957095628299e+02  2.7131124307249809e+01  6.2811511065943158e+01  3.0356858751746703e+01  7.1286507935464982e+01  6.3339879102008446e+01  2.3750075768762482e+01  4.0994074533755459e+01  1.2758611649569895e+02  2.8896153911247843e+01  2.7220538246723425e+01  3.2531800414231391e+01  9.0338097631259899e+01  5.8034640993356234e+01  3.1648731527399271e+01  4.0817558068272859e+01  3.6812517543562812e+01  3.5900129530303523e+01  1.1210999227066196e+02  8.5906167313532464e+01  5.4381450222956445e+01  3.7707829204546840e+01  3.2823996387021872e+01  3.6331582580967307e+01  3.8576032954379464e+01  3.8550632227610812e+01  6.2382099204550613e+01  6.5485153013347571e+01  5.6141708438182278e+01  2.9713271852961750e+01  6.4014644677951722e+01  3.0801244262746856e+01  1.0113029083981840e+02  6.4933326147657681e+01  6.8920125893627514e+01  6.8706536515319470e+01  7.1715392762268465e+01  3.3911699822715271e+01  4.6682958509026633e+01  2.9730718890554879e+01  3.0077448978222570e+01  2.9391676056314257e+01  4.1675209690895073e+01  2.4581793431642577e+01  2.9535773502391553e+01  4.5242372533664685e+01  1.2819363444948726e+02  1.3105660630320276e+02  1.1768774263490609e+02  4.3546016505008595e+01  5.8801979803473742e+01  5.6577763103148023e+01  3.4060496973519172e+01  3.4698403782897813e+01  1.1399147912907098e+02  9.0718380106367690e+01  2.4695033401473459e+01  7.2961867912156833e+01  7.6977726356746359e+01  3.2643710526568690e+01  1.0991658207132787e+02  3.1848336312524587e+01  7.7980314210218395e+01  3.1231157208536061e+01  7.8631265727881726e+01  4.5535842612988262e+01  4.6972824723429859e+01  3.5857098320074506e+01  9.3389962912445085e+01  3.5753312290443318e+01  3.1089329121024150e+01  3.7205122989676973e+01  3.5919700740117840e+01  9.4024014664429743e+01  3.9030422297428579e+01  4.4152836536674563e+01  8.1357684151039336e+01  4.5036508075367848e+01  3.0978769040889841e+01  7.7549836167565147e+01  2.3580813320569767e+01  1.3722909668141949e+02  7.142