<?xml version="1.0"?>
<VTKFile type="UnstructuredGrid"  version="0.1"  >
<UnstructuredGrid>
<Piece  NumberOfPoints="2331" NumberOfCells="4248">
<Points>
<DataArray  type="Float64"  NumberOfComponents="3"  format="ascii">0 0.3 0  0 0 0  0.04999999999999999 0 0  0.0514582251803892 0.02410733605106462 0  0.0558116365147896 0.04786313285751154 0  0.06299675146291706 0.07092097740850717 0  0.07290879486935808 0.09294463440875382 0  0.08540322682126872 0.1136129493462312 0  0.1002978503657798 0.132624531648159 0  0.117375468351841 0.1497021496342203 0  0.1363870506537689 0.1645967731787313 0  0.1570553655912463 0.177091205130642 0  0.1790790225914929 0.187003248537083 0  0.2021368671424885 0.1941883634852104 0  0.2258926639489354 0.1985417748196108 0  0.25 0.2 0  0.2741073360510646 0.1985417748196108 0  0.2978631328575116 0.1941883634852104 0  0.3209209774085071 0.187003248537083 0  0.3429446344087537 0.177091205130642 0  0.3636129493462312 0.1645967731787313 0  0.3826245316481591 0.1497021496342202 0  0.3997021496342202 0.132624531648159 0  0.4145967731787313 0.1136129493462312 0  0.427091205130642 0.09294463440875371 0  0.4370032485370829 0.07092097740850713 0  0.4441883634852104 0.04786313285751155 0  0.4485417748196108 0.02410733605106461 0  0.45 0 0  0.55 0 0  0.5514582251803892 0.02410733605106462 0  0.5558116365147896 0.04786313285751154 0  0.5629967514629171 0.07092097740850717 0  0.5729087948693581 0.09294463440875382 0  0.5854032268212688 0.1136129493462312 0  0.6002978503657798 0.132624531648159 0  0.617375468351841 0.1497021496342203 0  0.6363870506537689 0.1645967731787313 0  0.6570553655912463 0.177091205130642 0  0.6790790225914929 0.187003248537083 0  0.7021368671424885 0.1941883634852104 0  0.7258926639489354 0.1985417748196108 0  0.75 0.2 0  0.7741073360510646 0.1985417748196108 0  0.7978631328575116 0.1941883634852104 0  0.8209209774085071 0.187003248537083 0  0.8429446344087537 0.177091205130642 0  0.8636129493462312 0.1645967731787313 0  0.8826245316481591 0.1497021496342202 0  0.8997021496342202 0.132624531648159 0  0.9145967731787312 0.1136129493462312 0  0.927091205130642 0.09294463440875371 0  0.9370032485370829 0.07092097740850713 0  0.9441883634852104 0.04786313285751155 0  0.9485417748196108 0.02410733605106461 0  0.95 0 0  1 0 0  1 0.3 0  0.9758926639489353 0.3014582251803892 0  0.9521368671424885 0.3058116365147896 0  0.9290790225914928 0.3129967514629171 0  0.9070553655912461 0.3229087948693581 0  0.8863870506537688 0.3354032268212687 0  0.867375468351841 0.3502978503657798 0  0.8502978503657798 0.367375468351841 0  0.8354032268212687 0.3863870506537689 0  0.822908794869358 0.4070553655912464 0  0.8129967514629171 0.4290790225914929 0  0.8058116365147896 0.4521368671424885 0  0.8014582251803892 0.4758926639489354 0  0.8 0.4999999999999999 0  0.8014582251803892 0.5241073360510646 0  0.8058116365147896 0.5478631328575115 0  0.8129967514629171 0.5709209774085071 0  0.8229087948693581 0.5929446344087538 0  0.8354032268212688 0.6136129493462312 0  0.8502978503657798 0.632624531648159 0  0.867375468351841 0.6497021496342202 0  0.8863870506537689 0.6645967731787313 0  0.9070553655912463 0.677091205130642 0  0.9290790225914929 0.6870032485370829 0  0.9521368671424885 0.6941883634852104 0  0.9758926639489354 0.6985417748196108 0  1 0.7 0  1 1 0  0.95 1 0  0.9485417748196108 0.9758926639489353 0  0.9441883634852104 0.9521368671424885 0  0.9370032485370829 0.9290790225914928 0  0.927091205130642 0.9070553655912463 0  0.9145967731787312 0.8863870506537688 0  0.8997021496342201 0.8673754683518409 0  0.882624531648159 0.8502978503657798 0  0.863612949346231 0.8354032268212686 0  0.8429446344087537 0.822908794869358 0  0.8209209774085071 0.8129967514629171 0  0.7978631328575114 0.8058116365147896 0  0.7741073360510646 0.8014582251803892 0  0.75 0.8 0  0.7258926639489353 0.8014582251803892 0  0.7021368671424885 0.8058116365147896 0  0.6790790225914928 0.8129967514629171 0  0.6570553655912461 0.8229087948693581 0  0.6363870506537688 0.8354032268212688 0  0.617375468351841 0.8502978503657798 0  0.6002978503657798 0.867375468351841 0  0.5854032268212687 0.8863870506537689 0  0.572908794869358 0.9070553655912463 0  0.5629967514629171 0.9290790225914929 0  0.5558116365147896 0.9521368671424885 0  0.5514582251803892 0.9758926639489355 0  0.55 0.9999999999999999 0  0.45 0.9999999999999999 0  0.4485417748196108 0.9758926639489353 0  0.4441883634852104 0.9521368671424885 0  0.4370032485370829 0.9290790225914928 0  0.427091205130642 0.9070553655912463 0  0.4145967731787313 0.8863870506537688 0  0.3997021496342201 0.8673754683518409 0  0.382624531648159 0.8502978503657798 0  0.363612949346231 0.8354032268212686 0  0.3429446344087536 0.822908794869358 0  0.3209209774085071 0.8129967514629171 0  0.2978631328575115 0.8058116365147896 0  0.2741073360510646 0.8014582251803892 0  0.25 0.8 0  0.2258926639489353 0.8014582251803892 0  0.2021368671424885 0.8058116365147896 0  0.1790790225914928 0.8129967514629171 0  0.1570553655912462 0.8229087948693581 0  0.1363870506537688 0.8354032268212688 0  0.117375468351841 0.8502978503657798 0  0.1002978503657797 0.867375468351841 0  0.08540322682126869 0.8863870506537689 0  0.07290879486935797 0.9070553655912463 0  0.06299675146291703 0.9290790225914929 0  0.05581163651478957 0.9521368671424885 0  0.0514582251803892 0.9758926639489355 0  0.04999999999999999 0.9999999999999999 0  0 1 0  -0 0.7000000000000001 0  0.0241073360510646 0.6985417748196108 0  0.04786313285751161 0.6941883634852104 0  0.07092097740850711 0.6870032485370829 0  0.09294463440875372 0.677091205130642 0  0.1136129493462312 0.6645967731787312 0  0.1326245316481591 0.6497021496342202 0  0.1497021496342202 0.632624531648159 0  0.1645967731787313 0.6136129493462312 0  0.177091205130642 0.5929446344087537 0  0.187003248537083 0.5709209774085071 0  0.1941883634852104 0.5478631328575115 0  0.1985417748196108 0.5241073360510646 0  0.2 0.5 0  0.1985417748196108 0.4758926639489353 0  0.1941883634852104 0.4521368671424885 0  0.1870032485370829 0.4290790225914928 0  0.177091205130642 0.4070553655912463 0  0.1645967731787313 0.3863870506537688 0  0.1497021496342202 0.3673754683518409 0  0.132624531648159 0.3502978503657798 0  0.113612949346231 0.3354032268212686 0  0.09294463440875361 0.322908794869358 0  0.07092097740850711 0.3129967514629171 0  0.04786313285751148 0.3058116365147896 0  0.02410733605106464 0.3014582251803892 0  0.6985417748196108 0.5241073360510646 0  0.7 0.5 0  0.6985417748196108 0.4758926639489353 0  0.6941883634852104 0.4521368671424885 0  0.6870032485370829 0.4290790225914928 0  0.677091205130642 0.4070553655912463 0  0.6645967731787312 0.3863870506537688 0  0.6497021496342201 0.3673754683518409 0  0.632624531648159 0.3502978503657798 0  0.613612949346231 0.3354032268212686 0  0.5929446344087537 0.322908794869358 0  0.5709209774085071 0.3129967514629171 0  0.5478631328575114 0.3058116365147896 0  0.5241073360510646 0.3014582251803892 0  0.4999999999999999 0.3 0  0.4758926639489353 0.3014582251803892 0  0.4521368671424885 0.3058116365147896 0  0.4290790225914928 0.3129967514629171 0  0.4070553655912462 0.3229087948693581 0  0.3863870506537688 0.3354032268212687 0  0.367375468351841 0.3502978503657798 0  0.3502978503657798 0.367375468351841 0  0.3354032268212687 0.3863870506537689 0  0.322908794869358 0.4070553655912464 0  0.3129967514629171 0.4290790225914929 0  0.3058116365147896 0.4521368671424885 0  0.3014582251803892 0.4758926639489354 0  0.3 0.4999999999999999 0  0.3014582251803892 0.5241073360510646 0  0.3058116365147896 0.5478631328575115 0  0.3129967514629171 0.5709209774085071 0  0.3229087948693581 0.5929446344087538 0  0.3354032268212687 0.6136129493462312 0  0.3502978503657798 0.632624531648159 0  0.367375468351841 0.6497021496342202 0  0.3863870506537689 0.6645967731787313 0  0.4070553655912463 0.677091205130642 0  0.4290790225914929 0.6870032485370829 0  0.4521368671424885 0.6941883634852104 0  0.4758926639489354 0.6985417748196108 0  0.4999999999999999 0.7 0  0.5241073360510646 0.6985417748196108 0  0.5478631328575116 0.6941883634852104 0  0.5709209774085071 0.6870032485370829 0  0.5929446344087537 0.677091205130642 0  0.6136129493462312 0.6645967731787312 0  0.6326245316481591 0.6497021496342202 0  0.6497021496342202 0.632624531648159 0  0.6645967731787312 0.6136129493462312 0  0.677091205130642 0.5929446344087537 0  0.6870032485370829 0.5709209774085071 0  0.6941883634852104 0.5478631328575115 0  0 0.15 0  1 0.15 0  1 0.85 0  0 0.8500000000000001 0  0 0.075 0  1 0.075 0  1 0.925 0  0 0.925 0  0.5 0.8127595604293815 0  0.5069440078039168 0.190422209288238 0  0.25 0.3127595604293815 0  0.756944007803917 0.3095777907117619 0  0.756944007803917 0.6904222092882382 0  0.25 0.6872404395706185 0  0 0.225 0  0.4255768646051012 0.2241073097134061 0  1 0.7749999999999999 0  0.6773391559270888 0.2766774022734219 0  1 0.225 0  0.6755768646051011 0.7241073097134062 0  0 0.7750000000000001 0  0.5818971135297744 0.2287925518358889 0  0.8318971135297746 0.728792551835889 0  0.1659156081861886 0.7301636995921477 0  0.08376842746533225 0.2299656297760495 0  0.4236002201977974 0.7746535834185855 0  0.0840843918138115 0.7698363004078523 0  0.3340843918138113 0.7301636995921477 0  0.3340843918138114 0.2698363004078523 0  0.9159156081861887 0.2301636995921477 0  0.5840843918138116 0.7698363004078522 0  0.1659156081861887 0.2698363004078523 0  0.9162315725346678 0.7700343702239506 0  0.8340843918138114 0.2698363004078523 0  0.75 0.6146645247768686 0  0.5 0.1125158665330878 0  0.75 0.3874841334669124 0  0.2504983345544904 0.6122915843562002 0  0.2504983345544902 0.3877084156437999 0  0.5 0.8879783056303169 0  0.7005361650220154 0.3333055947145943 0  0.70416808765371 0.6599554817221275 0  0.449930214263529 0.1678187287522426 0  0.2247310981387008 0.7415600637745463 0  0.5155081196221678 0.7563797802146907 0  0.2752689018612993 0.2584399362254537 0  0.05605196690611226 0.8246131191226815 0  0.9439480330938878 0.1
[...]
<PointData  Scalars="Temperature"> 
<DataArray  type="Float64"  Name="Temperature"  format="ascii">8.5102705596247702e+01  8.7285830323987071e+01  8.7282223077220777e+01  8.7232495359325441e+01  8.7093431842634104e+01  8.6877141649666058e+01  8.6587769669550994e+01  8.6228212535448250e+01  8.5801794616632549e+01  8.5302091067965648e+01  8.4714800876938824e+01  8.4046137989826903e+01  8.3314866466613779e+01  8.2536278737298986e+01  8.1724871702736309e+01  8.0900031875378161e+01  8.0063154504518039e+01  7.9210585403366949e+01  7.8359120789638226e+01  7.7505020041092052e+01  7.6690926070317119e+01  7.5945839914101484e+01  7.5300898746131736e+01  7.4798804810446924e+01  7.4436215884597374e+01  7.4208449667236792e+01  7.4080247299786151e+01  7.4024731168601946e+01  7.4010232638322975e+01  7.3856761594004112e+01  7.3816660125673778e+01  7.3690932524995219e+01  7.3452317295063807e+01  7.3077431732773888e+01  7.2530990704132407e+01  7.1810257182528588e+01  7.0927828091559036e+01  6.9913160100086728e+01  6.8811600744295831e+01  6.7686057591120488e+01  6.6598716162056817e+01  6.5600838587948530e+01  6.4721674136130019e+01  6.3969584523244393e+01  6.3338202114038005e+01  6.2820861648629347e+01  6.2390974720345504e+01  6.2037640328180025e+01  6.1749603318150115e+01  6.1511455883501590e+01  6.1316474496728944e+01  6.1155467788614331e+01  6.1027297548623707e+01  6.0931864728899797e+01  6.0870521408562318e+01  6.0848621612589014e+01  6.0846843451113259e+01  6.1726954953689201e+01  6.1761881009624332e+01  6.1861683155492834e+01  6.2011983961551039e+01  6.2185269858929871e+01  6.2345463250519629e+01  6.2445661536150553e+01  6.2440650848515155e+01  6.2293923826622603e+01  6.1990415539660340e+01  6.1502728616984918e+01  6.0868970786400467e+01  6.0124974400494288e+01  5.9326048512374591e+01  5.8531135586368649e+01  5.7784467623942447e+01  5.7091256248334901e+01  5.6456855441870324e+01  5.5853858257191952e+01  5.5273134966258198e+01  5.4719412928361166e+01  5.4187496075896398e+01  5.3705374228098329e+01  5.3293368708574810e+01  5.2979674519451713e+01  5.2785545311261565e+01  5.2717365101751696e+01  5.1228833745828446e+01  5.1231121152513118e+01  5.1264746750126896e+01  5.1359077505068868e+01  5.1505954645857521e+01  5.1703294380143198e+01  5.1948869878853245e+01  5.2243068951434431e+01  5.2590407257805794e+01  5.2993588757703712e+01  5.3457646360384551e+01  5.3975863335919172e+01  5.4530757432120119e+01  5.5119286227515801e+01  5.5718472848129601e+01  5.6342460378345272e+01  5.6983138279019904e+01  5.7637325474614066e+01  5.8291447688984249e+01  5.8928441686740044e+01  5.9502931333185430e+01  6.0005339057642004e+01  6.0391054216554501e+01  6.0671063764059603e+01  6.0840672466913404e+01  6.0928623499684335e+01  6.0967215988500094e+01  6.0976349911687961e+01  6.1101287560124618e+01  6.1139621750202487e+01  6.1252813328136121e+01  6.1458509634583187e+01  6.1781776408194354e+01  6.2253809784129295e+01  6.2869452274371099e+01  6.3627251887262659e+01  6.4489464002540601e+01  6.5427710991205487e+01  6.6375336951657431e+01  6.7274123712017726e+01  6.8088125437341532e+01  6.8770245871034973e+01  6.9323189570779519e+01  6.9745489002177351e+01  7.0061539980861141e+01  7.0293153038878174e+01  7.0463640738956713e+01  7.0590813636403325e+01  7.0686644541038589e+01  7.0759486835328389e+01  7.0817098154268464e+01  7.0861019497088805e+01  7.0893547587972705e+01  7.0913346947338482e+01  7.0920799121591500e+01  7.0921039893484163e+01  7.0681880044382339e+01  7.0673481368130936e+01  7.0652160327988156e+01  7.0628397299731247e+01  7.0620326573107064e+01  7.0655580631514809e+01  7.0769294380633639e+01  7.0998217522804808e+01  7.1381107971671511e+01  7.1934915815110003e+01  7.2676231582047961e+01  7.3584917901502280e+01  7.4626396711421762e+01  7.5728991529214170e+01  7.6830981598716505e+01  7.7878424751105285e+01  7.8849091760530882e+01  7.9748220069545170e+01  8.0605646117337415e+01  8.1432258349908651e+01  8.2232130119618134e+01  8.2986256179508274e+01  8.3676996076587187e+01  8.4270291750895538e+01  8.4717333558418616e+01  8.5002786326781944e+01  5.8649962871288508e+01  5.9424912659361880e+01  6.0271494163523641e+01  6.1154327760452226e+01  6.2054640517343195e+01  6.2977546255525482e+01  6.3946297748746986e+01  6.4982793548717368e+01  6.6105489949772590e+01  6.7286018264174160e+01  6.8511338237915538e+01  6.9761194161693098e+01  7.0989370184512779e+01  7.2181712897837656e+01  7.3325697054682607e+01  7.4414031132012965e+01  7.5434139032805831e+01  7.6383313624817433e+01  7.7233642248883015e+01  7.7959737712045310e+01  7.8501382531441166e+01  7.8836232790295881e+01  7.8921372553326137e+01  7.8743941510256946e+01  7.8289417354890787e+01  7.7592979033832776e+01  7.6687501709247712e+01  7.5631504931584701e+01  7.4504840827568358e+01  7.3369275560975296e+01  7.2267396818867411e+01  7.1180149470742037e+01  7.0123639455931638e+01  6.9068614391537864e+01  6.7992466248969009e+01  6.6903260473485219e+01  6.5791751391949106e+01  6.4704719903153517e+01  6.3640835567999609e+01  6.2634303533473755e+01  6.1678901527308454e+01  6.0782738139420822e+01  5.9944320232068655e+01  5.9182093910244646e+01  5.8495449217112039e+01  5.7915865409367910e+01  5.7474074117896720e+01  5.7190302757445444e+01  5.7094582997533941e+01  5.7199762560831758e+01  5.7507452231137357e+01  5.8001075404617659e+01  8.6229886705455044e+01  6.1300392775755888e+01  5.1944292901775981e+01  7.0775456595398111e+01  8.6962272946419745e+01  6.0988897291795688e+01  5.1448042232080738e+01  7.0874690659984338e+01  6.1443198204737470e+01  7.3350863596369180e+01  8.0408968398179667e+01  6.3763404210162875e+01  5.5911021852511347e+01  6.9823386718049647e+01  8.5487622330838647e+01  7.5729300965410573e+01  5.2450642937849679e+01  6.6346489417193368e+01  6.1590144972275127e+01  5.7206261740270769e+01  7.0702026861419611e+01  7.0600344627507923e+01  5.4405089078107117e+01  7.0259549581480115e+01  8.4823609521996374e+01  6.3730336359489762e+01  7.0586982057827584e+01  6.7177933295265234e+01  7.8621824502784889e+01  6.1893019155259921e+01  5.9436265476079754e+01  8.2759233952494910e+01  5.2912054381141807e+01  6.2787244939297096e+01  5.6749376385490969e+01  7.3757553767395308e+01  6.2494676115021910e+01  7.1533543110279197e+01  7.9292958324723756e+01  6.1221070557623477e+01  6.4560161432094645e+01  5.6756765134485775e+01  7.4739577968123143e+01  6.9530833323705949e+01  6.1147394920516028e+01  8.0111912016914857e+01  7.0698471069652030e+01  6.1519820512465671e+01  8.5735699079031448e+01  5.2315629388695093e+01  7.3948501043396291e+01  5.6164299663899456e+01  6.4898574120845481e+01  6.2550838493568556e+01  7.0556202062705893e+01  8.1442469888474022e+01  6.8939046837520195e+01  7.9265711261681972e+01  6.0270217665357094e+01  7.3885950370107295e+01  6.1047407781535192e+01  5.8099524350247684e+01  7.7784212203631839e+01  7.3824541718996898e+01  6.1037530093184117e+01  6.1090486556831308e+01  8.1475899724726204e+01  6.8553140516660605e+01  7.1980658092972035e+01  5.5824103439839583e+01  6.2828199622833488e+01  6.8434853838133236e+01  7.7107735824108815e+01  7.7555490249886162e+01  5.8164585106488175e+01  5.8512644811404911e+01  6.8045662728575337e+01  5.5233107618724610e+01  6.3655686537391155e+01  5.9546268501297057e+01  7.3934339428460319e+01  7.5909977067560718e+01  6.5427858080247688e+01  6.5664073791833815e+01  7.2304372000338134e+01  5.3562072222069446e+01  5.3634343079012268e+01  6.2342779805308489e+01  8.4060676858754562e+01  7.0666360668318362e+01  6.2133408922385669e+01  7.0358045488068498e+01  8.3671520605804744e+01  7.0528275155358614e+01  6.1738460146351969e+01  6.2364726717605627e+01  5.2761946026789374e+01  8.5033800898451616e+01  6.1266864703371773e+01  5.1842532643589443e+01  8.6383544367075359e+01  7.0781747556826943e+01  6.2547274536185739e+01  5.5186360291657451e+01  7.2952406132348855e+01  5.6522744918228028e+01  5.9350172857638647e+01  6.7511252957025036e+01  8.2592048563579013e+01  6.1824380683017978e+01  7.8439295082602982e+01  7.0565383048191521e+01  7.0574703132828645e+01  8.5095498790777228e+01  5.2779148311158721e+01  7.1230929818069484e+01  8.0294835763955646e+01  6.0952441090692211e+01  5.4579604075959260e+01  7.9630270259307721e+01  7.0256275023757922e+01  6.6354129415652025e+01  6.6311818525013749e+01  6.3943897811262104e+01  7.5358565692706989e+01  5.7538780599154691e+01  7.6151363917832057e+01  5.7200877988726347e+01  6.1854981374277131e+01  6.3383037046622583e+01  7.0406192186240318e+01  6.4912744996538933e+01  5.4503748187658736e+01  6.9992595623379387e+01  6.9898354615526458e+01  7.8795842731225136e+01  6.7380149005188443e+01  8.2508314928906913e+01  6.2529457144784089e+01  5.9563999344614075e+01  7.4426773234248657e+01  8.5425024076943217e+01  6.2966224066244955e+01  6.1644945775115431e+01  7.0674398706190914e+01  6.0678150745807741e+01  7.0732318246703599e+01  6.1457218907930141e+01  6.3251608140511550e+01  5.2198963674747247e+01  7.4366292064780225e+01  6.3469258075130213e+01  6.3340468817579762e+01  7.3880463540184479e+01  8.5841935675694671e+01  5.7202529834206402e+01  5.7176432858503773e+01  5.6245885040852244e+01  7.2639353595302381e+01  7.9237093875443094e+01  7.0632625934001240e+01  7.9066526026034992e+01  7.0617723459307911e+01  7.4059112919262958e+01  7.3587912270588475e+01  6.1700064722018560e+01  6.2158370259392491e+01  6.0673506270746962e+01  6.0961976407197398e+01  6.1432490762280501e+01  5.2211353869228496e+01  7.0686768272147830e+01  5.1681069740652177e+01  6.1683423314006149e+01  8.5216000491578484e+01  6.0884546096251640e+01  8.7200421212760602e+01  6.1136367286943567e+01  6.1081784191504596e+01  8.6619825368419981e+01  5.1286498496016506e+01  7.0908679996660609e+01  5.2636853533295834e+01  7.0826949189935220e+01  7.0842908355284948e+01  7.8496554163396937e+01  7.2441942075652278e+01  7.0006768854979782e+01  7.9475057846329022e+01  6.1746825958094924e+01  5.3158353519294096e+01  6.8555626275576174e+01  8.1275654961568620e+01  5.5527333900916339e+01  5.6415597015403748e+01  6.2140426150651749e+01  5.2516682072598208e+01  6.0206420262348473e+01  7.2768869156907343e+01  7.0622921082075635e+01  8.0216897031433703e+01  8.3660699558755041e+01  6.9383440239971748e+01  7.2931550306170365e+01  6.3997017571070565e+01  6.3114826750939763e+01  6.0519687090430310e+01  5.7014174975199786e+01  5.7166608471941046e+01  5.1582624853751746e+01  8.6763771571527514e+01  8.4445037110668892e+01  5.5230637796021625e+01  6.9026628827582400e+01  8.1220831212828926e+01  6.2390696810287871e+01  7.1769603656116502e+01  5.6790409566848659e+01  6.1902279265248708e+01  6.4390137689974694e+01  7.6619068361056065e+01  5.7812241267839518e+01  6.4440731325565793e+01  8.7083297667428610e+01  6.0960094686439518e+01  5.1366515662727345e+01  7.0891357927687395e+01  6.4927195143883580e+01  5.7709788815604334e+01  7.4884448846087807e+01  7.0717107850030231e+01  7.0743429261733453e+01  6.1441143181624497e+01  6.1402984437604587e+01  6.6276880649641640e+01  8.5637119202744969e+01  8.5297349421842384e+01  8.5985984186510208e+01  7.5399200236279299e+01  7.5179789048121805e+01  8.4566220379536873e+01  6.2211523993965841e+01  7.0586472769660219e+01  7.0409420896047251e+01  6.2144452254863822e+01  6.5536157572736599e+01  6.4258168692600776e+01  7.7033016969156506e+01  5.8139022213825150e+01  5.2060854953039502e+01  5.6997032447906143e+01  5.6376893247524478e+01  7.1092464591743450e+01  6.0989228331960348e+01  6.2555078799996167e+01  7.3976607977878274e+01  7.3866140201394288e+01  6.0279884800320204e+01  6.0714900919215381e+01  7.6865992763625528e+01  7.7379695946911539e+01  6.5627867448346237e+01  5.4025306459510851e+01  6.1149612710588201e+01  6.8242341214094111e+01  7.9308830304095025e+01  6.6422359440757418e+01  8.1990538317682010e+01  6.8175844953063034e+01  6.9201367309518133e+01  6.9994246332247570e+01  7.9746425121674122e+01  8.0648930998132570e+01  6.9461501493514078e+01  5.9834704387323576e+01  6.0258599764732985e+01  7.9796681410562101e+01  7.0364389919741811e+01  7.9047427883094400e+01  8.1785282806225538e+01  6.8603038541933486e+01  7.0979907737156452e+01  6.0839116509951779e+01  5.8811367619918038e+01  5.8928815241573673e+01  7.5075342869401595e+01  7.4874513535961896e+01  8.3391066423791557e+01  5.6765638845312729e+01  5.6510001233421491e+01  5.6045956426918615e+01  7.6357414382265517e+01  5.7800615790671429e+01  6.1364254429881917e+01  7.6225579694504162e+01  6.2487141018689670e+01  6.3001495329112167e+01  6.4197640004671982e+01  7.3890129194933692e+01  7.3633534913371079e+01  6.5477579794503029e+01  6.7204051349587743e+01  5.2587056108259198e+01  8.4394746534534974e+01  6.2500178186258999e+01  7.2200142455747681e+01  5.3713065849040255e+01  5.3206932951612536e+01  6.3238008010517845e+01  6.2831002177943972e+01  6.2567794619962982e+01  7.0136111212414065e+01  7.7624843738181795e+01  7.8040170810574381e+01  5.8656320256470629e+01  5.8892483088677295e+01  6.4912007842545449e+01  7.0967896342413098e+01  7.3437094184265803e+01  6.9574011851232015e+01  6.2140809050527871e+01  5.7255153599978740e+01  6.1728400685165091e+01  7.0639874880753936e+01  7.1650852869744185e+01  5.1229991496737497e+01  6.0847678314643026e+01  8.7284313390843195e+01  7.0921001506807812e+01  7.4062598690408791e+01  6.9134396495585861e+01  7.7895327374538454e+01  6.3245246361352287e+01  5.7595005154181223e+01  6.2359110059729232e+01  7.3738345748129049e+01  7.4025129143287103e+01  7.8636146007207145e+01  6.3487202658306664e+01  5.4113523452510783e+01  5.3785709739727473e+01  5.3316856850168641e+01  5.4067053550328360e+01  5.8925481559332042e+01  7.8057331497303537e+01  7.1940010695631912e+01  6.1047965546329422e+01  6.0994963220852888e+01  6.1159073936010230e+01  5.8589892599178292e+01  5.7833199140632658e+01  7.3793524144542374e+01  7.3489457721497885e+01  8.3139175988948722e+01  7.8905564302990854e+01  6.4696898999356037e+01  8.4281085120242054e+01  7.0298401637833379e+01  6.6404772904757152e+01  6.1837741060707344e+01  8.5323118488155146e+01  7.4856900356107403e+01  5.5861897183983537e+01  5.5801531187840084e+01  5.2460694599735639e+01  6.9779430262473255e+01  8.2189094090284371e+01  6.7878558270139621e+01  7.0213941516372586e+01  7.0407061717651416e+01  7.0492526182121651e+01  7.6286659129463104e+01  5.9838049860041295e+01  8.6030414273100831e+01  5.3103980065584487e+01  7.8348270169221038e+01  6.7379510609325109e+01  7.0708831666260437e+01  6.1517314626013032e+01  5.6319818790187028e+01  6.5504425986893509e+01  7.8749314944614611e+01  5.9760227419335017e+01  8.1037675960987897e+01  6.1024074677860042e+01  5.2577500448949131e+01  7.0597945978300885e+01  6.7375604510320244e+01  7.7749611973021231e+01  6.2002337183917007e+01  7.3827672207743589e+01  6.0886898252867731e+01  7.0912094835249732e+01  8.7225083408275239e+01  5.1269378175294015e+01  6.9000381451382111e+01  6.2875750871551098e+01  5.3540355474853733e+01  6.2642496523796872e+01  7.0458103252142323e+01  6.7136733256937745e+01  6.1927084805270837e+01  5.9099890739679239e+01  8.4767438752831083e+01  7.0706068076981396e+01  7.0568434200651026e+01  6.9597385514206266e+01  6.3183405837299539e+01  6.5587714308546708e+01  6.6686404682081630e+01  7.0663313248227070e+01  6.1790633926702824e+01  7.0687315290685490e+01  6.2092079718428089e+01  7.2628863411715244e+01  8.0501096629345682e+01  7.1699451570756594e+01  5.4951547606139208e+01  8.0849477369933155e+01  6.1339837648223096e+01  5.4737868806070296e+01  5.5680609117643350e+01  5.5613778581229255e+01  6.4518692708516127e+01  6.1297039938535733e+01  5.2733301697000002e+01  7.3402917027211245e+01  8.2013949789824963e+01  6.7739561949262296e+01  6.1514844440461587e+01  5.7060635300470153e+01  7.1404019075180855e+01  7.0496930532734027e+01  5.2328169076618970e+01  8.0042570924995999e+01  6.9531487998033057e+01  7.3880692976808092e+01  6.1081623497568444e+01  7.3988043809118196e+01  7.3077512831379323e+01  8.2922246064402358e+01  6.1648279344853265e+01  7.0655007402741418e+01  7.0628129578959573e+01  6.1777665469708445e+01  6.1643263668783810e+01  6.1637360467588387e+01  5.2475573403408589e+01  8.5715657731277417e+01  6.9288897338494991e+01  7.9933858280703092e+01  6.0946883694786635e+01  7.3126092196906441e+01  7.1423456513994552e+01  6.8407859007926618e+01  7.4838523301631668e+01  7.9031430218426166e+01  8.0867181777455301e+01  6.2292916727286666e+01  7.0807125930274836e+01  6.1232988866642856e+01  5.4253667874043124e+01  7.0747322183391816e+01  6.2917653422894894e+01  8.4007145471504558e+01  6.2088269007679855e+01  8.3263365566236246e+01  8.3773439108658735e+01  5.2941005732384937e+01  5.2726491386784602e+01  8.5087347971638764e+01  8.5123291060839051e+01  7.7190320207070229e+01  6.3231148079145683e+01  6.1603963163513001e+01  6.2368073160606336e+01  6.3130087086971123e+01  6.1780385108679617e+01  6.4289732276437491e+01  5.2157723361217364e+01  6.0603524678609368e+01  6.4620788468295842e+01  7.9297398517781687e+01  7.6957291849534002e+01  6.2733881027183394e+01  6.0285124978868772e+01  6.0805388435342905e+01  6.2626157468227198e+01  5.6515194168414752e+01  7.8731068537910446e+01  7.4293725496201105e+01  7.0704069146255307e+01  7.1492935573571629e+01  7.1206976175727817e+01  7.9859190443744282e+01  5.1810233776215625e+01  8.6427561747097471e+01  8.6252450295718134e+01  8.6269979920058233e+01  5.1977449628960279e+01  5.1712777491736929e+01  5.4431355771570317e+01  6.9597427039967371e+01  5.5067139014709319e+01  7.2892780050205303e+01  5.6765264833497895e+01  6.1391548076191803e+01  6.1295915118015913e+01  7.0743914491506999e+01  7.0800450501892868e+01  7.0776169767311259e+01  6.0939290152139897e+01  8.6576205026355268e+01  7.0816476769686361e+01  6.1166179248776508e+01  5.3105274622198777e+01  7.2546336602161816e+01  6.1740420447560922e+01  7.1108253898103484e+01  7.9718661302046542e+01  7.0865959306213199e+01  6.1713416045558859e+01  7.0682829265115359e+01  5.8274655072094433e+01  5.5474584669507827e+01  5.5544312531301443e+01  5.4718591375048902e+01  8.1783929957004474e+01  6.1325631897966119e+01  8.4914266860912889e+01  5.5017658913423396e+01  7.0516413940952717e+01  6.1915364883414540e+01  7.1925262146423577e+01  7.2456590049796546e+01  5.1891706223507768e+01  6.2102761247882846e+01  8.4872350132681120e+01  5.5976646852319199e+01  6.0855326369012076e+01  5.8056567112061565e+01  7.8218442451608482e+01  6.8101687659725670e+01  5.9616824601545161e+01  6.1871153364169828e+01  6.0154096928783581e+01  6.2508018727086977e+01  8.2061627835996646e+01  7.6003838912319026e+01  6.6852741600093793e+01  6.3448318580516272e+01  6.2454913075940389e+01  6.3613067094930280e+01  6.3987347836615569e+01  6.1195237642432289e+01  6.9897695255353767e+01  7.0641123760480554e+01  6.7257872917055209e+01  6.1714444749337709e+01  7.0679414254241792e+01  6.2030431871392807e+01  8.0059059195889134e+01  7.0146375375922290e+01  7.4071757266162976e+01  7.3966959876737008e+01  7.4578132334490107e+01  6.3048109901083926e+01  6.3964022136009945e+01  5.6713023204199800e+01  5.6791655168405825e+01  5.6385297488732967e+01  6.5269121703489404e+01  5.2703366266217145e+01  6.1653069525427377e+01  6.6650327738401472e+01  8.4957214643923592e+01  8.5450823345178449e+01  8.3112138181163900e+01  6.6260496223173575e+01  6.8174896453788449e+01  6.7462334837086587e+01  6.2329781967814796e+01  5.9250912526699977e+01  8.2387641870132825e+01  7.8297663770442696e+01  5.2782898034089328e+01  7.4644315558108346e+01  7.5552924790186324e+01  6.2539779304828784e+01  8.1709222324448234e+01  5.7753900913521882e+01  7.5801685961695895e+01  5.7422041864427086e+01  7.5954130206402610e+01  6.3680730676314759e+01  6.4239282163585045e+01  5.9814483261959317e+01  7.8775042714043465e+01  5.9545648174404917e+01  5.7275742657934209e+01  6.3432269496135895e+01  6.2697003020775298e+01  7.8887711599884156e+01  6.1460009964935118e+01  6.6387266000402207e+01  7.4718628334882396e+01  6.6469163521775783e+01  5.8910211695528488e+01  7.5647815790705550e+01  5.1712573523375667e+01  8.6505248685340177e+01  7.457