<?xml version="1.0"?>
<VTKFile type="UnstructuredGrid"  version="0.1"  >
<UnstructuredGrid>
<Piece  NumberOfPoints="2331" NumberOfCells="4248">
<Points>
<DataArray  type="Float64"  NumberOfComponents="3"  format="ascii">0 0.3 0  0 0 0  0.04999999999999999 0 0  0.0514582251803892 0.02410733605106462 0  0.0558116365147896 0.04786313285751154 0  0.06299675146291706 0.07092097740850717 0  0.07290879486935808 0.09294463440875382 0  0.08540322682126872 0.1136129493462312 0  0.1002978503657798 0.132624531648159 0  0.117375468351841 0.1497021496342203 0  0.1363870506537689 0.1645967731787313 0  0.1570553655912463 0.177091205130642 0  0.1790790225914929 0.187003248537083 0  0.2021368671424885 0.1941883634852104 0  0.2258926639489354 0.1985417748196108 0  0.25 0.2 0  0.2741073360510646 0.1985417748196108 0  0.2978631328575116 0.1941883634852104 0  0.3209209774085071 0.187003248537083 0  0.3429446344087537 0.177091205130642 0  0.3636129493462312 0.1645967731787313 0  0.3826245316481591 0.1497021496342202 0  0.3997021496342202 0.132624531648159 0  0.4145967731787313 0.1136129493462312 0  0.427091205130642 0.09294463440875371 0  0.4370032485370829 0.07092097740850713 0  0.4441883634852104 0.04786313285751155 0  0.4485417748196108 0.02410733605106461 0  0.45 0 0  0.55 0 0  0.5514582251803892 0.02410733605106462 0  0.5558116365147896 0.04786313285751154 0  0.5629967514629171 0.07092097740850717 0  0.5729087948693581 0.09294463440875382 0  0.5854032268212688 0.1136129493462312 0  0.6002978503657798 0.132624531648159 0  0.617375468351841 0.1497021496342203 0  0.6363870506537689 0.1645967731787313 0  0.6570553655912463 0.177091205130642 0  0.6790790225914929 0.187003248537083 0  0.7021368671424885 0.1941883634852104 0  0.7258926639489354 0.1985417748196108 0  0.75 0.2 0  0.7741073360510646 0.1985417748196108 0  0.7978631328575116 0.1941883634852104 0  0.8209209774085071 0.187003248537083 0  0.8429446344087537 0.177091205130642 0  0.8636129493462312 0.1645967731787313 0  0.8826245316481591 0.1497021496342202 0  0.8997021496342202 0.132624531648159 0  0.9145967731787312 0.1136129493462312 0  0.927091205130642 0.09294463440875371 0  0.9370032485370829 0.07092097740850713 0  0.9441883634852104 0.04786313285751155 0  0.9485417748196108 0.02410733605106461 0  0.95 0 0  1 0 0  1 0.3 0  0.9758926639489353 0.3014582251803892 0  0.9521368671424885 0.3058116365147896 0  0.9290790225914928 0.3129967514629171 0  0.9070553655912461 0.3229087948693581 0  0.8863870506537688 0.3354032268212687 0  0.867375468351841 0.3502978503657798 0  0.8502978503657798 0.367375468351841 0  0.8354032268212687 0.3863870506537689 0  0.822908794869358 0.4070553655912464 0  0.8129967514629171 0.4290790225914929 0  0.8058116365147896 0.4521368671424885 0  0.8014582251803892 0.4758926639489354 0  0.8 0.4999999999999999 0  0.8014582251803892 0.5241073360510646 0  0.8058116365147896 0.5478631328575115 0  0.8129967514629171 0.5709209774085071 0  0.8229087948693581 0.5929446344087538 0  0.8354032268212688 0.6136129493462312 0  0.8502978503657798 0.632624531648159 0  0.867375468351841 0.6497021496342202 0  0.8863870506537689 0.6645967731787313 0  0.9070553655912463 0.677091205130642 0  0.9290790225914929 0.6870032485370829 0  0.9521368671424885 0.6941883634852104 0  0.9758926639489354 0.6985417748196108 0  1 0.7 0  1 1 0  0.95 1 0  0.9485417748196108 0.9758926639489353 0  0.9441883634852104 0.9521368671424885 0  0.9370032485370829 0.9290790225914928 0  0.927091205130642 0.9070553655912463 0  0.9145967731787312 0.8863870506537688 0  0.8997021496342201 0.8673754683518409 0  0.882624531648159 0.8502978503657798 0  0.863612949346231 0.8354032268212686 0  0.8429446344087537 0.822908794869358 0  0.8209209774085071 0.8129967514629171 0  0.7978631328575114 0.8058116365147896 0  0.7741073360510646 0.8014582251803892 0  0.75 0.8 0  0.7258926639489353 0.8014582251803892 0  0.7021368671424885 0.8058116365147896 0  0.6790790225914928 0.8129967514629171 0  0.6570553655912461 0.8229087948693581 0  0.6363870506537688 0.8354032268212688 0  0.617375468351841 0.8502978503657798 0  0.6002978503657798 0.867375468351841 0  0.5854032268212687 0.8863870506537689 0  0.572908794869358 0.9070553655912463 0  0.5629967514629171 0.9290790225914929 0  0.5558116365147896 0.9521368671424885 0  0.5514582251803892 0.9758926639489355 0  0.55 0.9999999999999999 0  0.45 0.9999999999999999 0  0.4485417748196108 0.9758926639489353 0  0.4441883634852104 0.9521368671424885 0  0.4370032485370829 0.9290790225914928 0  0.427091205130642 0.9070553655912463 0  0.4145967731787313 0.8863870506537688 0  0.3997021496342201 0.8673754683518409 0  0.382624531648159 0.8502978503657798 0  0.363612949346231 0.8354032268212686 0  0.3429446344087536 0.822908794869358 0  0.3209209774085071 0.8129967514629171 0  0.2978631328575115 0.8058116365147896 0  0.2741073360510646 0.8014582251803892 0  0.25 0.8 0  0.2258926639489353 0.8014582251803892 0  0.2021368671424885 0.8058116365147896 0  0.1790790225914928 0.8129967514629171 0  0.1570553655912462 0.8229087948693581 0  0.1363870506537688 0.8354032268212688 0  0.117375468351841 0.8502978503657798 0  0.1002978503657797 0.867375468351841 0  0.08540322682126869 0.8863870506537689 0  0.07290879486935797 0.9070553655912463 0  0.06299675146291703 0.9290790225914929 0  0.05581163651478957 0.9521368671424885 0  0.0514582251803892 0.9758926639489355 0  0.04999999999999999 0.9999999999999999 0  0 1 0  -0 0.7000000000000001 0  0.0241073360510646 0.6985417748196108 0  0.04786313285751161 0.6941883634852104 0  0.07092097740850711 0.6870032485370829 0  0.09294463440875372 0.677091205130642 0  0.1136129493462312 0.6645967731787312 0  0.1326245316481591 0.6497021496342202 0  0.1497021496342202 0.632624531648159 0  0.1645967731787313 0.6136129493462312 0  0.177091205130642 0.5929446344087537 0  0.187003248537083 0.5709209774085071 0  0.1941883634852104 0.5478631328575115 0  0.1985417748196108 0.5241073360510646 0  0.2 0.5 0  0.1985417748196108 0.4758926639489353 0  0.1941883634852104 0.4521368671424885 0  0.1870032485370829 0.4290790225914928 0  0.177091205130642 0.4070553655912463 0  0.1645967731787313 0.3863870506537688 0  0.1497021496342202 0.3673754683518409 0  0.132624531648159 0.3502978503657798 0  0.113612949346231 0.3354032268212686 0  0.09294463440875361 0.322908794869358 0  0.07092097740850711 0.3129967514629171 0  0.04786313285751148 0.3058116365147896 0  0.02410733605106464 0.3014582251803892 0  0.6985417748196108 0.5241073360510646 0  0.7 0.5 0  0.6985417748196108 0.4758926639489353 0  0.6941883634852104 0.4521368671424885 0  0.6870032485370829 0.4290790225914928 0  0.677091205130642 0.4070553655912463 0  0.6645967731787312 0.3863870506537688 0  0.6497021496342201 0.3673754683518409 0  0.632624531648159 0.3502978503657798 0  0.613612949346231 0.3354032268212686 0  0.5929446344087537 0.322908794869358 0  0.5709209774085071 0.3129967514629171 0  0.5478631328575114 0.3058116365147896 0  0.5241073360510646 0.3014582251803892 0  0.4999999999999999 0.3 0  0.4758926639489353 0.3014582251803892 0  0.4521368671424885 0.3058116365147896 0  0.4290790225914928 0.3129967514629171 0  0.4070553655912462 0.3229087948693581 0  0.3863870506537688 0.3354032268212687 0  0.367375468351841 0.3502978503657798 0  0.3502978503657798 0.367375468351841 0  0.3354032268212687 0.3863870506537689 0  0.322908794869358 0.4070553655912464 0  0.3129967514629171 0.4290790225914929 0  0.3058116365147896 0.4521368671424885 0  0.3014582251803892 0.4758926639489354 0  0.3 0.4999999999999999 0  0.3014582251803892 0.5241073360510646 0  0.3058116365147896 0.5478631328575115 0  0.3129967514629171 0.5709209774085071 0  0.3229087948693581 0.5929446344087538 0  0.3354032268212687 0.6136129493462312 0  0.3502978503657798 0.632624531648159 0  0.367375468351841 0.6497021496342202 0  0.3863870506537689 0.6645967731787313 0  0.4070553655912463 0.677091205130642 0  0.4290790225914929 0.6870032485370829 0  0.4521368671424885 0.6941883634852104 0  0.4758926639489354 0.6985417748196108 0  0.4999999999999999 0.7 0  0.5241073360510646 0.6985417748196108 0  0.5478631328575116 0.6941883634852104 0  0.5709209774085071 0.6870032485370829 0  0.5929446344087537 0.677091205130642 0  0.6136129493462312 0.6645967731787312 0  0.6326245316481591 0.6497021496342202 0  0.6497021496342202 0.632624531648159 0  0.6645967731787312 0.6136129493462312 0  0.677091205130642 0.5929446344087537 0  0.6870032485370829 0.5709209774085071 0  0.6941883634852104 0.5478631328575115 0  0 0.15 0  1 0.15 0  1 0.85 0  0 0.8500000000000001 0  0 0.075 0  1 0.075 0  1 0.925 0  0 0.925 0  0.5 0.8127595604293815 0  0.5069440078039168 0.190422209288238 0  0.25 0.3127595604293815 0  0.756944007803917 0.3095777907117619 0  0.756944007803917 0.6904222092882382 0  0.25 0.6872404395706185 0  0 0.225 0  0.4255768646051012 0.2241073097134061 0  1 0.7749999999999999 0  0.6773391559270888 0.2766774022734219 0  1 0.225 0  0.6755768646051011 0.7241073097134062 0  0 0.7750000000000001 0  0.5818971135297744 0.2287925518358889 0  0.8318971135297746 0.728792551835889 0  0.1659156081861886 0.7301636995921477 0  0.08376842746533225 0.2299656297760495 0  0.4236002201977974 0.7746535834185855 0  0.0840843918138115 0.7698363004078523 0  0.3340843918138113 0.7301636995921477 0  0.3340843918138114 0.2698363004078523 0  0.9159156081861887 0.2301636995921477 0  0.5840843918138116 0.7698363004078522 0  0.1659156081861887 0.2698363004078523 0  0.9162315725346678 0.7700343702239506 0  0.8340843918138114 0.2698363004078523 0  0.75 0.6146645247768686 0  0.5 0.1125158665330878 0  0.75 0.3874841334669124 0  0.2504983345544904 0.6122915843562002 0  0.2504983345544902 0.3877084156437999 0  0.5 0.8879783056303169 0  0.7005361650220154 0.3333055947145943 0  0.70416808765371 0.6599554817221275 0  0.449930214263529 0.1678187287522426 0  0.2247310981387008 0.7415600637745463 0  0.5155081196221678 0.7563797802146907 0  0.2752689018612993 0.2584399362254537 0  0.05605196690611226 0.8246131191226815 0  0.9439480330938878 0.1
[...]
<PointData  Scalars="Temperature"> 
<DataArray  type="Float64"  Name="Temperature"  format="ascii">9.1633609388789736e+01  9.4734046413413935e+01  9.4728914617467311e+01  9.4658159170717539e+01  9.4460314600379846e+01  9.4152676034830961e+01  9.3741246723793367e+01  9.3230306355449045e+01  9.2624686680413021e+01  9.1915381278946938e+01  9.1082132984698319e+01  9.0133611766294223e+01  8.9096112291242903e+01  8.7990864521399843e+01  8.6837808464647097e+01  8.5664061623496281e+01  8.4471667296721250e+01  8.3255912455086673e+01  8.2041444402154468e+01  8.0823701234151898e+01  7.9663509014449687e+01  7.8601653594188946e+01  7.7681939596755242e+01  7.6964044771172539e+01  7.6443190340986163e+01  7.6112767501682981e+01  7.5924162392079367e+01  7.5840340991521614e+01  7.5817983693422704e+01  7.5604095908299257e+01  7.5550500408787443e+01  7.5381663366573122e+01  7.5059215476870179e+01  7.4550004193026211e+01  7.3804752072489649e+01  7.2819366934194221e+01  7.1611555394039755e+01  7.0221757373454139e+01  6.8712254654574579e+01  6.7168640574278854e+01  6.5674676684337413e+01  6.4299046581827980e+01  6.3079876925848737e+01  6.2027971581150290e+01  6.1135734407487796e+01  6.0395937280634534e+01  5.9774161844565434e+01  5.9258156374333701e+01  5.8834435496840968e+01  5.8482236702497644e+01  5.8192818912485180e+01  5.7953262940730674e+01  5.7762275653690722e+01  5.7619983980757908e+01  5.7528497692523338e+01  5.7495834346952520e+01  5.7493186877075097e+01  5.8821084425411712e+01  5.8874473623021110e+01  5.9027561553115056e+01  5.9260341517676743e+01  5.9534136081395637e+01  5.9798891786114893e+01  5.9989895057651069e+01  6.0046594862695329e+01  5.9919083581717921e+01  5.9587672971953396e+01  5.9018224123255628e+01  5.8261705248164589e+01  5.7365573703965886e+01  5.6401235906773827e+01  5.5443101192975902e+01  5.4544429139613015e+01  5.3710403903449325e+01  5.2945892341097320e+01  5.2215847858266521e+01  5.1508648478112754e+01  5.0830914090235929e+01  5.0176931734794771e+01  4.9582523438313402e+01  4.9073643818952803e+01  4.8685832445636670e+01  4.8445716827616266e+01  4.8361366100349350e+01  4.6528242168647090e+01  4.6531061817708768e+01  4.6572476437797256e+01  4.6688682255591416e+01  4.6869707497328044e+01  4.7113116371850559e+01  4.7416423375598278e+01  4.7780405549936866e+01  4.8210994566446786e+01  4.8712070608199461e+01  4.9290568869066625e+01  4.9939250511511304e+01  5.0637407032558478e+01  5.1382677510636547e+01  5.2147326780007766e+01  5.2950010751348316e+01  5.3779924474678303e+01  5.4632056079442059e+01  5.5487285391728001e+01  5.6321687365057748e+01  5.7074961142606597e+01  5.7733887329367498e+01  5.8239741568164732e+01  5.8606847093316830e+01  5.8829081158201092e+01  5.8944202372483147e+01  5.8994650530375189e+01  5.9006569767671074e+01  5.9170427342204952e+01  5.9220788366846335e+01  5.9369479864667454e+01  5.9639642246671443e+01  6.0064175969700003e+01  6.0684036665228149e+01  6.1492465421258778e+01  6.2487530183669385e+01  6.3619517682337246e+01  6.4850862442810381e+01  6.6093437193550798e+01  6.7270003789864518e+01  6.8332279349539519e+01  6.9218202293846048e+01  6.9930820849498616e+01  7.0468503748523972e+01  7.0864781996897435e+01  7.1149425429874341e+01  7.1354149350524253e+01  7.1503491049344717e+01  7.1613542339420633e+01  7.1695435393712231e+01  7.1759175364315396e+01  7.1807139490096688e+01  7.1842403105641395e+01  7.1863789647976716e+01  7.1871827522244104e+01  7.1872094494967840e+01  7.1633280773593683e+01  7.1625475602133420e+01  7.1606819651705749e+01  7.1590490936407363e+01  7.1599822651876380e+01  7.1670082104235576e+01  7.1847018448823235e+01  7.2178456540590787e+01  7.2715641796756458e+01  7.3480890929980575e+01  7.4496712177200806e+01  7.5736314592979426e+01  7.7154259385058126e+01  7.8654300198274342e+01  8.0153985121911987e+01  8.1581388277973844e+01  8.2907920778956509e+01  8.4142425653432284e+01  8.5326716244205841e+01  8.6474982627360660e+01  8.7592080721380356e+01  8.8649744397706911e+01  8.9621459724241760e+01  9.0457862856558521e+01  9.1089011313590944e+01  9.1492369417705277e+01  5.5598201984429828e+01  5.6534298284694884e+01  5.7567510390259912e+01  5.8657747330870926e+01  5.9785285960603389e+01  6.0961518418974705e+01  6.2218934899610808e+01  6.3585251878333693e+01  6.5084655818583698e+01  6.6676113786230928e+01  6.8340235225879624e+01  7.0047506766850503e+01  7.1733889627315790e+01  7.3379484142079960e+01  7.4966285111711699e+01  7.6484630171474649e+01  7.7915960059585302e+01  7.9255597936208659e+01  8.0462646398368818e+01  8.1500616709895610e+01  8.2283560915081992e+01  8.2779778407093815e+01  8.2928690552150513e+01  8.2712280052077134e+01  8.2111664738198016e+01  8.1175878755574814e+01  7.9951718012178048e+01  7.8520817705037175e+01  7.6993616253664641e+01  7.5455875092707743e+01  7.3967181965938380e+01  7.2503686362331180e+01  7.1087867086813063e+01  6.9680436276088784e+01  6.8251280229858736e+01  6.6810057960902554e+01  6.5342858713552431e+01  6.3910497011452939e+01  6.2510219154375946e+01  6.1186291368104179e+01  5.9929890861554235e+01  5.8751135622443996e+01  5.7647437701758214e+01  5.6642164337472934e+01  5.5733307993737547e+01  5.4961116755455677e+01  5.4363588746445643e+01  5.3966369911807583e+01  5.3805921005614572e+01  5.3897889033956780e+01  5.4243906815844902e+01  5.4823050882361947e+01  9.3232505926704164e+01  5.8171387668593844e+01  4.7409630000359591e+01  7.1716993611952489e+01  9.4273716854124686e+01  5.7705179284049883e+01  4.6798227302515819e+01  7.1822248284505093e+01  5.9620559784927700e+01  7.4967478905516103e+01  8.5002771775451592e+01  6.1848632220420789e+01  5.2342299285580047e+01  7.0641785871124313e+01  9.2178915986602391e+01  7.8313463435461472e+01  4.8033162757211016e+01  6.5366508631418782e+01  5.8610144690052657e+01  5.4046394962968066e+01  7.1646210614717006e+01  7.1180031460887577e+01  5.0461586780554050e+01  7.1148564463473562e+01  9.1238145266489610e+01  6.2625234334984015e+01  7.1515871276628360e+01  6.7158932653140766e+01  8.2430079015520462e+01  5.9060489576757142e+01  5.6983727930489316e+01  8.8318464223629093e+01  4.8605867799619880e+01  6.0396026390816807e+01  5.3326103796137659e+01  7.5496412263731017e+01  6.0284314505200150e+01  7.2959093911531781e+01  8.3491356122074166e+01  5.9328441147583867e+01  6.2987356267156187e+01  5.3404463818386461e+01  7.6898150382870057e+01  7.0218068085253122e+01  5.9231587187102654e+01  8.4551507120101718e+01  7.1632187033514484e+01  5.8498502491174037e+01  9.2530861566655489e+01  4.7868016964571474e+01  7.5822597043826093e+01  5.2704602203250033e+01  6.3353539937859537e+01  6.1074640813620640e+01  7.1588020068101642e+01  8.6475451337851027e+01  6.9494799791108278e+01  8.3376665916224482e+01  5.8080921845851883e+01  7.5653271916292255e+01  5.8502362820050926e+01  5.4930569777540398e+01  8.1444609332956873e+01  7.6067737971304155e+01  5.9086798520058835e+01  5.9156530507648583e+01  8.6496191166463220e+01  6.8956438643809648e+01  7.3063432142875840e+01  5.2195679709451326e+01  6.0546095964801324e+01  6.8206472844533096e+01  8.0275149506599121e+01  8.0901048856386453e+01  5.5315517572910430e+01  5.5763138487082671e+01  6.7694499747999302e+01  5.1509181677981807e+01  6.1611564268134664e+01  5.6674292849626440e+01  7.5712075500258891e+01  7.8899509629196828e+01  6.4854286073532094e+01  6.5170891446173044e+01  7.3533259878447566e+01  4.9416576046401033e+01  4.9498705574917707e+01  6.0802358822682621e+01  9.0160609425068358e+01  7.1612502830789282e+01  5.9435790173935089e+01  7.1240616931478272e+01  8.9604480837259658e+01  7.1471409082603245e+01  5.8835812256379754e+01  5.9749562424042324e+01  4.8417510827704014e+01  9.1536251785697019e+01  5.8120052745138906e+01  4.7284624587631789e+01  9.3450922615245361e+01  7.1721713759602977e+01  6.0272500499285400e+01  5.1426507544447048e+01  7.4388748343708755e+01  5.3141168996678289e+01  5.6873630746315236e+01  6.7609154727651287e+01  8.8092077682435985e+01  5.8948776608447837e+01  8.2183252555839928e+01  7.1563785492574112e+01  7.1489556203498921e+01  9.1622573191478793e+01  4.8443987419517441e+01  7.2524944922687084e+01  8.4885454538030118e+01  5.8976265471692066e+01  5.0665258534454203e+01  8.3924278686283046e+01  7.1243888695374281e+01  6.5350020490877696e+01  6.5347801806802138e+01  6.2904042570708192e+01  7.7803293397464174e+01  5.4465597719179215e+01  7.8899845047189700e+01  5.4056760841241690e+01  6.0160554292039158e+01  6.2170304271822239e+01  7.0926178010529483e+01  6.3415738980170730e+01  5.0597370906213619e+01  7.0335604496023322e+01  7.0672483980556521e+01  8.2668097955150159e+01  6.7414034379915165e+01  8.7954980904325538e+01  6.0065804300891386e+01  5.7148123429078971e+01  7.6475881731332535e+01  9.2090236485733044e+01  6.0618417461790351e+01  5.8689854892059529e+01  7.1612526174494903e+01  5.8615805180037867e+01  7.1673687306655893e+01  5.8407863426329470e+01  6.1086157639584215e+01  4.7725101024175196e+01  7.6354290862179283e+01  6.1520598036734924e+01  6.1407934637011984e+01  7.5687123442187371e+01  9.2681559308225403e+01  5.3851461516110824e+01  5.3851332469274155e+01  5.2732122855016769e+01  7.4452585959627896e+01  8.3433359866889106e+01  7.1763164025836048e+01  8.3146597720235533e+01  7.1567060874454228e+01  7.5905518114217031e+01  7.5249069235980471e+01  5.9276410005265433e+01  5.9899383561468049e+01  5.8610183951521051e+01  5.8988237290587584e+01  5.9605642837999930e+01  4.7738591448121795e+01  7.1635603967032324e+01  4.7085321643886331e+01  5.8753726966181041e+01  9.1794017769462528e+01  5.7549436092861711e+01  9.4612517300144404e+01  5.7925544450434380e+01  5.7843717372930541e+01  9.3786720446202807e+01  4.6599254503944898e+01  7.1858790044723946e+01  4.8262303729410277e+01  7.1771187928700655e+01  7.1787791875426720e+01  8.2399754920622016e+01  7.4197608568910610e+01  7.0858466165857379e+01  8.3654751220934472e+01  6.0018943770078103e+01  4.8907899967319047e+01  6.8945809963238062e+01  8.6202153574125745e+01  5.1896625928190446e+01  5.2903378424269569e+01  6.0536745617766883e+01  4.8115254708377144e+01  5.7994967477992780e+01  7.4187786636911184e+01  7.1715646234949773e+01  8.4757214799662165e+01  8.9592871312090864e+01  6.9516901242919047e+01  7.4373224741330162e+01  6.2120565372126940e+01  6.1005003598054095e+01  5.8405600118972124e+01  5.3773751101050820e+01  5.3951757675794518e+01  4.6964112296219440e+01  9.3991423775940376e+01  9.0700942285831232e+01  5.1462614320041077e+01  6.9594959435684544e+01  8.6149292085962543e+01  5.9808464901188806e+01  7.2784454978566302e+01  5.3405622271911703e+01  5.9083070690060850e+01  6.2790857371379808e+01  7.9570707964621974e+01  5.4840210876797592e+01  6.3560598015118352e+01  9.4445886632470121e+01  5.7662133099113532e+01  4.6697821671457689e+01  7.1840100647861334e+01  6.4194818763179711e+01  5.4473203803228564e+01  7.7128473678676642e+01  7.1649342958556517e+01  7.1683115774895455e+01  5.8378962975814623e+01  5.8325180220780432e+01  6.5966409551013342e+01  9.2390915688689248e+01  9.1909131614850708e+01  9.2886105786230374e+01  7.7826762442292207e+01  7.7529240914061617e+01  9.0875330842347381e+01  6.0629497360529832e+01  7.1565569372473689e+01  7.1293007851655759e+01  5.9418215415786470e+01  6.4285087903802960e+01  6.2441481111283863e+01  8.0152911769876127e+01  5.5262877567779775e+01  4.7553724951384552e+01  5.3695595374098410e+01  5.2927877585909009e+01  7.1840239648547879e+01  5.9023601711458532e+01  6.0159036210014328e+01  7.5773352603739056e+01  7.5619425346465476e+01  5.7558302001498582e+01  5.8107757543581648e+01  8.0195397030892053e+01  8.0899539502522956e+01  6.4369696290845312e+01  4.9979226852175955e+01  5.9233984123162642e+01  6.7934697216040263e+01  8.3406008051461086e+01  6.6173048293356928e+01  8.7236913828267646e+01  6.8476776732090272e+01  6.9779656349630315e+01  7.0818623674051295e+01  8.4022838104779765e+01  8.5325526749116747e+01  7.0146343455322182e+01  5.7508635259840339e+01  5.8065993024635112e+01  8.4135051838340843e+01  7.1308944283123580e+01  8.3085523178970917e+01  8.6963953552190901e+01  6.9058070359826260e+01  7.2163637025750603e+01  5.8827520461315913e+01  5.5789438522938539e+01  5.5924237247384205e+01  7.7766592353070891e+01  7.7492544160275372e+01  8.9217418378997067e+01  5.3481193148945074e+01  5.3161745675257173e+01  5.2535067130665944e+01  7.9215388069930100e+01  5.4843161836159922e+01  5.9516842347183839e+01  7.9022225323277965e+01  6.0990583713357260e+01  6.1667036106798697e+01  6.2471682672014722e+01  7.5749671879013775e+01  7.5372715766928167e+01  6.4136159609818364e+01  6.6524034330429444e+01  4.8203518206680130e+01  9.0628538235469819e+01  6.0156485883352993e+01  7.3356137732208538e+01  4.9608475946341620e+01  4.8976373317987481e+01  6.1116795960299626e+01  6.0497278975438533e+01  6.0034878598204344e+01  7.0962686265234737e+01  8.1017197874601862e+01  8.1604557858322877e+01  5.5964061702531829e+01  5.6271269093499008e+01  6.4182503535714616e+01  7.1676388849740022e+01  7.5062450741453972e+01  6.9768950190668548e+01  5.9429493293470408e+01  5.3926522841367941e+01  5.8810947487361723e+01  7.1568933274206884e+01  7.2638523623495374e+01  4.6529669326285415e+01  5.7494429720500221e+01  9.4731888571424889e+01  7.1872049319397249e+01  7.5954783990862396e+01  6.9186776488971731e+01  8.1390763835036665e+01  6.1986138588620335e+01  5.4565099207437797e+01  5.9784911607550981e+01  7.5448353140857137e+01  7.5847599152967135e+01  8.2601575947237919e+01  6.1354335661354014e+01  5.0093260047848446e+01  4.9690772334783894e+01  4.9107801978310171e+01  5.0046121628963533e+01  5.6304705768231983e+01  8.1612744717427205e+01  7.3493457119362148e+01  5.9100558117512634e+01  5.9030971639197958e+01  5.9246789458450344e+01  5.5870241646115488e+01  5.4605546853647226e+01  7.6022146485775977e+01  7.5616748945632111e+01  8.8859006192956983e+01  8.2845207405011521e+01  6.3895454868399767e+01  9.0470531651990953e+01  7.1263695794787040e+01  6.6138464191136450e+01  5.9474030523140534e+01  9.1945807262797189e+01  7.7051500368704808e+01  5.2229999944409727e+01  5.2185552894394007e+01  4.8048432331929398e+01  7.0617479710175644e+01  8.7508185295463761e+01  6.8075701723763174e+01  7.1071945800271308e+01  7.1315232684432047e+01  7.1407681686457465e+01  7.9412476715187537e+01  5.7034518983229809e+01  9.2949282146783688e+01  4.8845981623449156e+01  8.2218170830945823e+01  6.6797691832950377e+01  7.1650317958559143e+01  5.8498011329160697e+01  5.2801605042967338e+01  6.4273303920129848e+01  8.2639894831627871e+01  5.7412182046533076e+01  8.5918837272099410e+01  5.8457134923065993e+01  4.8189507151571348e+01  7.1558771169421647e+01  6.6771576352982805e+01  8.1390310240138135e+01  5.9216206825148021e+01  7.5582589495910426e+01  5.7552933994464958e+01  7.1862450743659721e+01  9.4647610551464382e+01  4.6578175273504527e+01  6.9533343362688697e+01  6.0737269043096347e+01  4.9379754196576606e+01  6.0163935499479663e+01  7.1400683123498595e+01  6.6417566947852578e+01  5.9126362300226972e+01  5.6538988398711773e+01  9.1159282077922498e+01  7.1774706904954783e+01  7.1504549191174846e+01  7.0382595041150879e+01  6.0956436642886338e+01  6.5067307145994590e+01  6.6516817188976987e+01  7.1614386433123215e+01  5.8917590258380088e+01  7.1630976566098809e+01  5.9725056596377314e+01  7.3972208733297606e+01  8.5099832287801632e+01  7.3199496187034100e+01  5.1166656914212730e+01  8.5639097570501249e+01  5.9484118531559574e+01  5.0884133428880681e+01  5.2081907554135192e+01  5.1981363671737547e+01  6.2854768764521296e+01  5.9427636762846312e+01  4.8383277536570283e+01  7.5003121321849889e+01  8.7250300478517403e+01  6.7879843701914098e+01  5.9714173261023369e+01  5.3738131181475495e+01  7.2794849626512871e+01  7.1402916351836993e+01  4.7882691723664976e+01  8.4468588376833594e+01  7.0273951144621378e+01  7.5637395594683284e+01  5.9144633368427286e+01  7.5787020940128897e+01  7.4553059605849185e+01  8.8539726884290261e+01  5.8685936564342875e+01  7.1580503334281744e+01  7.1569204250605509e+01  5.8891473478532518e+01  5.8691683073922199e+01  5.8681362067953224e+01  4.8068047105530475e+01  9.2502387211788360e+01  6.9368021103827800e+01  8.4394869751881103e+01  5.8968694889935897e+01  7.4675039035171906e+01  7.2315759870887334e+01  6.8179462817311347e+01  7.7077246647501340e+01  8.3119879027209890e+01  8.5626562128097760e+01  5.9701205873358056e+01  7.1748572258499848e+01  5.8068898084205891e+01  5.0286886814114858e+01  7.1864160937318459e+01  6.1558772771310302e+01  9.0086296584282834e+01  5.9376059300426959e+01  8.9028683519318179e+01  8.9747291717035566e+01  4.8638392501207676e+01  4.8372972576682294e+01  9.1611976186173067e+01  9.1662796991556291e+01  8.0386001619311145e+01  6.1968093314096279e+01  5.9214127358010096e+01  6.0089709176717705e+01  6.1837027969725639e+01  6.0063503446959167e+01  6.2502930897928415e+01  4.7672751253589503e+01  5.8518452829239649e+01  6.3793680194359254e+01  8.3449763635125308e+01  8.0322266083236698e+01  6.0468662545063133e+01  5.7573304521134709e+01  5.8782938454436533e+01  6.1175086766953100e+01  5.3078606243734455e+01  8.2703918531871295e+01  7.6241916719087968e+01  7.1641972974736959e+01  7.2874999226112791e+01  7.2506340256702970e+01  8.4274097182042581e+01  4.7244460482122307e+01  9.3513412360061295e+01  9.3264592125057277e+01  9.3289606595730262e+01  4.7451539555309559e+01  4.7124725882931592e+01  5.0478386174650154e+01  7.0284413706056398e+01  5.1289619587270906e+01  7.4802842332067513e+01  5.3319733155161501e+01  5.8306416748228223e+01  5.8164264833061814e+01  7.1681373416648583e+01  7.1743083654534288e+01  7.1717036807244270e+01  5.8958286672198341e+01  9.3724778975747242e+01  7.1759694663960616e+01  5.7969945533346419e+01  4.8843809970264765e+01  7.3836314749757221e+01  6.0009947968613027e+01  7.1895148591734753e+01  8.4065137113612721e+01  7.2056772758386657e+01  5.8800126395737038e+01  7.1633523423912735e+01  5.5147004878197194e+01  5.1773934310758825e+01  5.1878022050726173e+01  5.0844782044296089e+01  8.6927404771451833e+01  5.9466115586192238e+01  9.1365225207586676e+01  5.1208163351768448e+01  7.1418103261379855e+01  5.9079822688533973e+01  7.3482029678710205e+01  7.3724829353550746e+01  4.7344967933187078e+01  6.0486092897790009e+01  9.1307986054718526e+01  5.2476034917221071e+01  5.7505842323817070e+01  5.5168302387754146e+01  8.1846930615967807e+01  6.8358406966675474e+01  5.6754018698632493e+01  6.0182645335879265e+01  5.7927287731256250e+01  6.0356546766499655e+01  8.7344028490478394e+01  7.9026100776261131e+01  6.6719554764205441e+01  6.1565506590360329e+01  5.9979715337827855e+01  6.1611691771165837e+01  6.2243526384911291e+01  5.9294765281341157e+01  7.0663163176895296e+01  7.1657489325659725e+01  6.7277573215572431e+01  5.8800960591997089e+01  7.1629190977723653e+01  5.9272404162860553e+01  8.4521588172123913e+01  7.1084148591391425e+01  7.5933510124881110e+01  7.5796803180138298e+01  7.6661505615468982e+01  6.0724832792135047e+01  6.2935076102984240e+01  5.3371309933629107e+01  5.3502190836213224e+01  5.2978397255583744e+01  6.3944448229090739e+01  4.8348691257957839e+01  5.8695867516581401e+01  6.5793145825285293e+01  9.1426908328172203e+01  9.2126628770533898e+01  8.8811140272081403e+01  6.5212287424608164e+01  6.8483167000969374e+01  6.7539096241146893e+01  5.9984668603215340e+01  5.6744249330957999e+01  8.7808428855109113e+01  8.1985488655181996e+01  4.8449730780559953e+01  7.6798428377599549e+01  7.8071114611845303e+01  6.0043264035943160e+01  8.6833390092456227e+01  5.4746707973760913e+01  7.8408774986107417e+01  5.4320965897280239e+01  7.8615350530452517e+01  6.2559123394187715e+01  6.3291336936873158e+01  5.7482891671251252e+01  8.2635412735029959e+01  5.7122382882429719e+01  5.4159276908801971e+01  6.1502827457849442e+01  6.0569231948549970e+01  8.2830137321556506e+01  5.9641969408555440e+01  6.5407631228847848e+01  7.7281815926807496e+01  6.5569904681229474e+01  5.5904952135242723e+01  7.8214728663776754e+01  4.7124221174769310e+01  9.3623849325136774e+01  7.664