<?xml version="1.0"?>
<VTKFile type="UnstructuredGrid"  version="0.1"  >
<UnstructuredGrid>
<Piece  NumberOfPoints="2331" NumberOfCells="4248">
<Points>
<DataArray  type="Float64"  NumberOfComponents="3"  format="ascii">0 0.3 0  0 0 0  0.04999999999999999 0 0  0.0514582251803892 0.02410733605106462 0  0.0558116365147896 0.04786313285751154 0  0.06299675146291706 0.07092097740850717 0  0.07290879486935808 0.09294463440875382 0  0.08540322682126872 0.1136129493462312 0  0.1002978503657798 0.132624531648159 0  0.117375468351841 0.1497021496342203 0  0.1363870506537689 0.1645967731787313 0  0.1570553655912463 0.177091205130642 0  0.1790790225914929 0.187003248537083 0  0.2021368671424885 0.1941883634852104 0  0.2258926639489354 0.1985417748196108 0  0.25 0.2 0  0.2741073360510646 0.1985417748196108 0  0.2978631328575116 0.1941883634852104 0  0.3209209774085071 0.187003248537083 0  0.3429446344087537 0.177091205130642 0  0.3636129493462312 0.1645967731787313 0  0.3826245316481591 0.1497021496342202 0  0.3997021496342202 0.132624531648159 0  0.4145967731787313 0.1136129493462312 0  0.427091205130642 0.09294463440875371 0  0.4370032485370829 0.07092097740850713 0  0.4441883634852104 0.04786313285751155 0  0.4485417748196108 0.02410733605106461 0  0.45 0 0  0.55 0 0  0.5514582251803892 0.02410733605106462 0  0.5558116365147896 0.04786313285751154 0  0.5629967514629171 0.07092097740850717 0  0.5729087948693581 0.09294463440875382 0  0.5854032268212688 0.1136129493462312 0  0.6002978503657798 0.132624531648159 0  0.617375468351841 0.1497021496342203 0  0.6363870506537689 0.1645967731787313 0  0.6570553655912463 0.177091205130642 0  0.6790790225914929 0.187003248537083 0  0.7021368671424885 0.1941883634852104 0  0.7258926639489354 0.1985417748196108 0  0.75 0.2 0  0.7741073360510646 0.1985417748196108 0  0.7978631328575116 0.1941883634852104 0  0.8209209774085071 0.187003248537083 0  0.8429446344087537 0.177091205130642 0  0.8636129493462312 0.1645967731787313 0  0.8826245316481591 0.1497021496342202 0  0.8997021496342202 0.132624531648159 0  0.9145967731787312 0.1136129493462312 0  0.927091205130642 0.09294463440875371 0  0.9370032485370829 0.07092097740850713 0  0.9441883634852104 0.04786313285751155 0  0.9485417748196108 0.02410733605106461 0  0.95 0 0  1 0 0  1 0.3 0  0.9758926639489353 0.3014582251803892 0  0.9521368671424885 0.3058116365147896 0  0.9290790225914928 0.3129967514629171 0  0.9070553655912461 0.3229087948693581 0  0.8863870506537688 0.3354032268212687 0  0.867375468351841 0.3502978503657798 0  0.8502978503657798 0.367375468351841 0  0.8354032268212687 0.3863870506537689 0  0.822908794869358 0.4070553655912464 0  0.8129967514629171 0.4290790225914929 0  0.8058116365147896 0.4521368671424885 0  0.8014582251803892 0.4758926639489354 0  0.8 0.4999999999999999 0  0.8014582251803892 0.5241073360510646 0  0.8058116365147896 0.5478631328575115 0  0.8129967514629171 0.5709209774085071 0  0.8229087948693581 0.5929446344087538 0  0.8354032268212688 0.6136129493462312 0  0.8502978503657798 0.632624531648159 0  0.867375468351841 0.6497021496342202 0  0.8863870506537689 0.6645967731787313 0  0.9070553655912463 0.677091205130642 0  0.9290790225914929 0.6870032485370829 0  0.9521368671424885 0.6941883634852104 0  0.9758926639489354 0.6985417748196108 0  1 0.7 0  1 1 0  0.95 1 0  0.9485417748196108 0.9758926639489353 0  0.9441883634852104 0.9521368671424885 0  0.9370032485370829 0.9290790225914928 0  0.927091205130642 0.9070553655912463 0  0.9145967731787312 0.8863870506537688 0  0.8997021496342201 0.8673754683518409 0  0.882624531648159 0.8502978503657798 0  0.863612949346231 0.8354032268212686 0  0.8429446344087537 0.822908794869358 0  0.8209209774085071 0.8129967514629171 0  0.7978631328575114 0.8058116365147896 0  0.7741073360510646 0.8014582251803892 0  0.75 0.8 0  0.7258926639489353 0.8014582251803892 0  0.7021368671424885 0.8058116365147896 0  0.6790790225914928 0.8129967514629171 0  0.6570553655912461 0.8229087948693581 0  0.6363870506537688 0.8354032268212688 0  0.617375468351841 0.8502978503657798 0  0.6002978503657798 0.867375468351841 0  0.5854032268212687 0.8863870506537689 0  0.572908794869358 0.9070553655912463 0  0.5629967514629171 0.9290790225914929 0  0.5558116365147896 0.9521368671424885 0  0.5514582251803892 0.9758926639489355 0  0.55 0.9999999999999999 0  0.45 0.9999999999999999 0  0.4485417748196108 0.9758926639489353 0  0.4441883634852104 0.9521368671424885 0  0.4370032485370829 0.9290790225914928 0  0.427091205130642 0.9070553655912463 0  0.4145967731787313 0.8863870506537688 0  0.3997021496342201 0.8673754683518409 0  0.382624531648159 0.8502978503657798 0  0.363612949346231 0.8354032268212686 0  0.3429446344087536 0.822908794869358 0  0.3209209774085071 0.8129967514629171 0  0.2978631328575115 0.8058116365147896 0  0.2741073360510646 0.8014582251803892 0  0.25 0.8 0  0.2258926639489353 0.8014582251803892 0  0.2021368671424885 0.8058116365147896 0  0.1790790225914928 0.8129967514629171 0  0.1570553655912462 0.8229087948693581 0  0.1363870506537688 0.8354032268212688 0  0.117375468351841 0.8502978503657798 0  0.1002978503657797 0.867375468351841 0  0.08540322682126869 0.8863870506537689 0  0.07290879486935797 0.9070553655912463 0  0.06299675146291703 0.9290790225914929 0  0.05581163651478957 0.9521368671424885 0  0.0514582251803892 0.9758926639489355 0  0.04999999999999999 0.9999999999999999 0  0 1 0  -0 0.7000000000000001 0  0.0241073360510646 0.6985417748196108 0  0.04786313285751161 0.6941883634852104 0  0.07092097740850711 0.6870032485370829 0  0.09294463440875372 0.677091205130642 0  0.1136129493462312 0.6645967731787312 0  0.1326245316481591 0.6497021496342202 0  0.1497021496342202 0.632624531648159 0  0.1645967731787313 0.6136129493462312 0  0.177091205130642 0.5929446344087537 0  0.187003248537083 0.5709209774085071 0  0.1941883634852104 0.5478631328575115 0  0.1985417748196108 0.5241073360510646 0  0.2 0.5 0  0.1985417748196108 0.4758926639489353 0  0.1941883634852104 0.4521368671424885 0  0.1870032485370829 0.4290790225914928 0  0.177091205130642 0.4070553655912463 0  0.1645967731787313 0.3863870506537688 0  0.1497021496342202 0.3673754683518409 0  0.132624531648159 0.3502978503657798 0  0.113612949346231 0.3354032268212686 0  0.09294463440875361 0.322908794869358 0  0.07092097740850711 0.3129967514629171 0  0.04786313285751148 0.3058116365147896 0  0.02410733605106464 0.3014582251803892 0  0.6985417748196108 0.5241073360510646 0  0.7 0.5 0  0.6985417748196108 0.4758926639489353 0  0.6941883634852104 0.4521368671424885 0  0.6870032485370829 0.4290790225914928 0  0.677091205130642 0.4070553655912463 0  0.6645967731787312 0.3863870506537688 0  0.6497021496342201 0.3673754683518409 0  0.632624531648159 0.3502978503657798 0  0.613612949346231 0.3354032268212686 0  0.5929446344087537 0.322908794869358 0  0.5709209774085071 0.3129967514629171 0  0.5478631328575114 0.3058116365147896 0  0.5241073360510646 0.3014582251803892 0  0.4999999999999999 0.3 0  0.4758926639489353 0.3014582251803892 0  0.4521368671424885 0.3058116365147896 0  0.4290790225914928 0.3129967514629171 0  0.4070553655912462 0.3229087948693581 0  0.3863870506537688 0.3354032268212687 0  0.367375468351841 0.3502978503657798 0  0.3502978503657798 0.367375468351841 0  0.3354032268212687 0.3863870506537689 0  0.322908794869358 0.4070553655912464 0  0.3129967514629171 0.4290790225914929 0  0.3058116365147896 0.4521368671424885 0  0.3014582251803892 0.4758926639489354 0  0.3 0.4999999999999999 0  0.3014582251803892 0.5241073360510646 0  0.3058116365147896 0.5478631328575115 0  0.3129967514629171 0.5709209774085071 0  0.3229087948693581 0.5929446344087538 0  0.3354032268212687 0.6136129493462312 0  0.3502978503657798 0.632624531648159 0  0.367375468351841 0.6497021496342202 0  0.3863870506537689 0.6645967731787313 0  0.4070553655912463 0.677091205130642 0  0.4290790225914929 0.6870032485370829 0  0.4521368671424885 0.6941883634852104 0  0.4758926639489354 0.6985417748196108 0  0.4999999999999999 0.7 0  0.5241073360510646 0.6985417748196108 0  0.5478631328575116 0.6941883634852104 0  0.5709209774085071 0.6870032485370829 0  0.5929446344087537 0.677091205130642 0  0.6136129493462312 0.6645967731787312 0  0.6326245316481591 0.6497021496342202 0  0.6497021496342202 0.632624531648159 0  0.6645967731787312 0.6136129493462312 0  0.677091205130642 0.5929446344087537 0  0.6870032485370829 0.5709209774085071 0  0.6941883634852104 0.5478631328575115 0  0 0.15 0  1 0.15 0  1 0.85 0  0 0.8500000000000001 0  0 0.075 0  1 0.075 0  1 0.925 0  0 0.925 0  0.5 0.8127595604293815 0  0.5069440078039168 0.190422209288238 0  0.25 0.3127595604293815 0  0.756944007803917 0.3095777907117619 0  0.756944007803917 0.6904222092882382 0  0.25 0.6872404395706185 0  0 0.225 0  0.4255768646051012 0.2241073097134061 0  1 0.7749999999999999 0  0.6773391559270888 0.2766774022734219 0  1 0.225 0  0.6755768646051011 0.7241073097134062 0  0 0.7750000000000001 0  0.5818971135297744 0.2287925518358889 0  0.8318971135297746 0.728792551835889 0  0.1659156081861886 0.7301636995921477 0  0.08376842746533225 0.2299656297760495 0  0.4236002201977974 0.7746535834185855 0  0.0840843918138115 0.7698363004078523 0  0.3340843918138113 0.7301636995921477 0  0.3340843918138114 0.2698363004078523 0  0.9159156081861887 0.2301636995921477 0  0.5840843918138116 0.7698363004078522 0  0.1659156081861887 0.2698363004078523 0  0.9162315725346678 0.7700343702239506 0  0.8340843918138114 0.2698363004078523 0  0.75 0.6146645247768686 0  0.5 0.1125158665330878 0  0.75 0.3874841334669124 0  0.2504983345544904 0.6122915843562002 0  0.2504983345544902 0.3877084156437999 0  0.5 0.8879783056303169 0  0.7005361650220154 0.3333055947145943 0  0.70416808765371 0.6599554817221275 0  0.449930214263529 0.1678187287522426 0  0.2247310981387008 0.7415600637745463 0  0.5155081196221678 0.7563797802146907 0  0.2752689018612993 0.2584399362254537 0  0.05605196690611226 0.8246131191226815 0  0.9439480330938878 0.1
[...]
<PointData  Scalars="Temperature"> 
<DataArray  type="Float64"  Name="Temperature"  format="ascii">6.4363838096749916e+01  7.0529464828303560e+01  7.0514437770737871e+01  7.0380695184912312e+01  7.0005269336957880e+01  6.9417866628595192e+01  6.8627124826482842e+01  6.7638893408921973e+01  6.6465009180397161e+01  6.5092509841447693e+01  6.3487620051794885e+01  6.1670282839986456e+01  5.9692081679517884e+01  5.7593242761798543e+01  5.5415385252189687e+01  5.3217829878694801e+01  5.1020317389656924e+01  4.8834332364117699e+01  4.6719506072610528e+01  4.4666248356496190e+01  4.2763968936921906e+01  4.1054719024103598e+01  3.9578091183577477e+01  3.8406676125485852e+01  3.7522567405648402e+01  3.6919855767117731e+01  3.6536524825746760e+01  3.6339146240748754e+01  3.6279430951614827e+01  3.5733831671874455e+01  3.5680014127892434e+01  3.5505813191593298e+01  3.5167309269243582e+01  3.4637884858991974e+01  3.3874196558227744e+01  3.2894428800083695e+01  3.1745962384732525e+01  3.0475224100340391e+01  2.9155249218226775e+01  2.7862030848497159e+01  2.6656244386740791e+01  2.5580048211519475e+01  2.4650133852199954e+01  2.3862345039134961e+01  2.3204152468905036e+01  2.2668310522687953e+01  2.2229720340338588e+01  2.1879356040405519e+01  2.1606202297556099e+01  2.1393409966336833e+01  2.1230936095481670e+01  2.1106678159054088e+01  2.1014702380981127e+01  2.0949664686068775e+01  2.0909320916377403e+01  2.0895179408828906e+01  2.0892126032418854e+01  2.1506263868080797e+01  2.1546895588814781e+01  2.1664580866556062e+01  2.1850260300998375e+01  2.2084475482629863e+01  2.2342448382247316e+01  2.2588915202015905e+01  2.2795758990230677e+01  2.2931945405708412e+01  2.2986876257807502e+01  2.2944651601743615e+01  2.2830209214472653e+01  2.2663241399180951e+01  2.2471972153316671e+01  2.2281776315300409e+01  2.2100425510026259e+01  2.1926992384827198e+01  2.1760219876933835e+01  2.1590162677681061e+01  2.1416228882672204e+01  2.1245405555454951e+01  2.1078282430920122e+01  2.0927387528696762e+01  2.0799432784963187e+01  2.0703075979254368e+01  2.0643681272268029e+01  2.0622790730787635e+01  2.0289829341394658e+01  2.0290591603862950e+01  2.0297717210441203e+01  2.0317893438751977e+01  2.0350092226263268e+01  2.0395032801373187e+01  2.0454446135630256e+01  2.0530646277846557e+01  2.0627015397198623e+01  2.0747234499276892e+01  2.0895834853830209e+01  2.1074957959580811e+01  2.1282532866132410e+01  2.1521830577321115e+01  2.1787304984073433e+01  2.2086451501049325e+01  2.2412275518465957e+01  2.2761061179969449e+01  2.3115652638890420e+01  2.3459936593882247e+01  2.3760274452377299e+01  2.4003844058746090e+01  2.4158833066272468e+01  2.4237102289480617e+01  2.4241529866497778e+01  2.4201803105245091e+01  2.4160174814562954e+01  2.4142158736672982e+01  2.4286658662764840e+01  2.4353852960535843e+01  2.4541768738902558e+01  2.4854225441611479e+01  2.5306117214971433e+01  2.5917617203840994e+01  2.6679767867772284e+01  2.7592704942570052e+01  2.8617316809688099e+01  2.9733202222296072e+01  3.0865199915488738e+01  3.1947072836828234e+01  3.2924340380468571e+01  3.3730194029177824e+01  3.4346630215732503e+01  3.4751412070430618e+01  3.4967407407475307e+01  3.5009953289134266e+01  3.4903175881859724e+01  3.4686747391039837e+01  3.4381431004289226e+01  3.4013265034981252e+01  3.3621177663566357e+01  3.3244277900131941e+01  3.2921808038992602e+01  3.2705483412871352e+01  3.2619088584875236e+01  3.2618812918946929e+01  3.5950475641107140e+01  3.5975004038570354e+01  3.6050804117320169e+01  3.6174520960101184e+01  3.6351929389968873e+01  3.6595771922233716e+01  3.6936541083022412e+01  3.7414091478887372e+01  3.8071306165910940e+01  3.8929875025478587e+01  4.0028048887644509e+01  4.1345995592678243e+01  4.2858314820709069e+01  4.4485904852993201e+01  4.6171064617637171e+01  4.7865275331949199e+01  4.9566070063981648e+01  5.1304700805460357e+01  5.3129256322530615e+01  5.5021891638030432e+01  5.6957946635698320e+01  5.8851794170121011e+01  6.0626211241198376e+01  6.2170959609183008e+01  6.3345971973576702e+01  6.4100065503848370e+01  2.2405664348199547e+01  2.2602218328221600e+01  2.2859932483334550e+01  2.3185696541888916e+01  2.3592892832729497e+01  2.4111289048474500e+01  2.4774120942776463e+01  2.5603098629097072e+01  2.6628434327784106e+01  2.7825088258165671e+01  2.9194264010422373e+01  3.0725810537757436e+01  3.2379925913700042e+01  3.4144027983317642e+01  3.5992347783369119e+01  3.7912721176819218e+01  3.9856128608741834e+01  4.1793752734967086e+01  4.3627683676950227e+01  4.5297726542959381e+01  4.6653571042794802e+01  4.7641087916859817e+01  4.8160047917202974e+01  4.8196543347570135e+01  4.7724352861321151e+01  4.6825496974154525e+01  4.5568472300461458e+01  4.4067073523631301e+01  4.2449346075931118e+01  4.0807843903207242e+01  3.9211250575610343e+01  3.7638930584284779e+01  3.6130393293267375e+01  3.4658992834614750e+01  3.3214245759568470e+01  3.1816344881663660e+01  3.0454819587608366e+01  2.9187028567153060e+01  2.8012603070862333e+01  2.6966745272623434e+01  2.6038457226972589e+01  2.5233115085669297e+01  2.4535754996348889e+01  2.3948604609721286e+01  2.3446825413664627e+01  2.3030922663675781e+01  2.2700097855722781e+01  2.2452046162915284e+01  2.2287418940471539e+01  2.2205444386474994e+01  2.2202156960306674e+01  2.2271278458454297e+01  6.7648659072322985e+01  2.1189058342916407e+01  2.0443695796943789e+01  3.4248555497919398e+01  6.9659737371912328e+01  2.0982400285332183e+01  2.0335936807776616e+01  3.3149560651039586e+01  2.5397746904407992e+01  3.5692587836942280e+01  5.1959444543465871e+01  2.4013084972843828e+01  2.1777571042105841e+01  3.5568361825434160e+01  6.5521759619538159e+01  4.0493762911221850e+01  2.0558605464148890e+01  2.6585816536773432e+01  2.1394897930411851e+01  2.2548749986737455e+01  3.5360243224738099e+01  3.1579110760030190e+01  2.1191227291381370e+01  3.5757919727173942e+01  6.3735663706571515e+01  2.7900831218033030e+01  3.5461377632858721e+01  3.2009648846018166e+01  4.7120070272910375e+01  2.1714099031672735e+01  2.3958139226483858e+01  5.8206315610356747e+01  2.0700821866733104e+01  2.2725889085145653e+01  2.1952098406192867e+01  3.6028469142231543e+01  2.3520956480549319e+01  3.8224025059560368e+01  4.9843148894048610e+01  2.4759672523829153e+01  2.5036473867666533e+01  2.2176502963939608e+01  3.8341050854206308e+01  3.4846228321478058e+01  2.5412259413267904e+01  5.1063118961514746e+01  3.4701714231010953e+01  2.1373806702782737e+01  6.6273578689716445e+01  2.0535031928406315e+01  3.6985013653653681e+01  2.1979778055536883e+01  2.4934244086276667e+01  2.6419623209633464e+01  3.6627761905470294e+01  5.4862920728191533e+01  3.4420985629626401e+01  4.8771919374195001e+01  2.4336882481629768e+01  3.6012729870236264e+01  2.3011386289573956e+01  2.2228021240912366e+01  4.7421412919406400e+01  4.1577834198512456e+01  2.4208970136078268e+01  2.4371105602887834e+01  5.4744925339646038e+01  3.3689259420675597e+01  3.3309872560145173e+01  2.1634541343018061e+01  2.3045053368535889e+01  2.8809632108076531e+01  4.3449027429232892e+01  4.4664230940997861e+01  2.3102353349826625e+01  2.3411057223199411e+01  2.8542619903139379e+01  2.1533442047032533e+01  2.3599759040218085e+01  2.2579897941881679e+01  3.6004479665421648e+01  4.4612237854251170e+01  2.9809079255495735e+01  3.0223400150907302e+01  3.4135062771395042e+01  2.0916692976516277e+01  2.0916870757984906e+01  2.6458951450914157e+01  6.1650922084388021e+01  3.5714541825562463e+01  2.1985437252667136e+01  3.5355265696694985e+01  6.0647188138662671e+01  3.5984091050943896e+01  2.1534747105327416e+01  2.2209574886390293e+01  2.0643246089379780e+01  6.4241057033716345e+01  2.1178767739903392e+01  2.0424589906958257e+01  6.8073443267320329e+01  3.4015374798165617e+01  2.3200440612322918e+01  2.1457215722333771e+01  3.4627770263743365e+01  2.2127733186729788e+01  2.3755100811553465e+01  3.2542877746368148e+01  5.7821313769423782e+01  2.1663472830405073e+01  4.6531431999805179e+01  3.6470324019294495e+01  3.4966731060218905e+01  6.4516766319154428e+01  2.0675376227929988e+01  3.7803859450327003e+01  5.2238126072707729e+01  2.4735910318540373e+01  2.1217848674404134e+01  5.0066572976086640e+01  3.6299918014744598e+01  2.6445358913751406e+01  2.6729852550600480e+01  2.8020731985680964e+01  3.9707576266258371e+01  2.2760700930664470e+01  4.1478687947546376e+01  2.2536971143005651e+01  2.5489537716061779e+01  2.7660753689196000e+01  3.1493596979184968e+01  2.5132369993619641e+01  2.1257750563146789e+01  3.0640143699975358e+01  3.5073983052311092e+01  4.7715032749280752e+01  3.2142005497807155e+01  5.7514639602796628e+01  2.2549570619054879e+01  2.4182187729574249e+01  3.7788191115872685e+01  6.5374581542027173e+01  2.2840571311017559e+01  2.1462744113024780e+01  3.5239901280140423e+01  2.4834960760366929e+01  3.4826860668405295e+01  2.1297939755852905e+01  2.3306155737189943e+01  2.0513936687231922e+01  3.7414067938858494e+01  2.4045301261344598e+01  2.4225562039375131e+01  3.6498432829574973e+01  6.6550600580876548e+01  2.1992272164732380e+01  2.2124580986597412e+01  2.1843981180378940e+01  3.9914114329699075e+01  5.0136395257653163e+01  3.6858409059125371e+01  4.8758941198533783e+01  3.5947499827583634e+01  3.6565592038531740e+01  3.5494316658266662e+01  2.3091693125044561e+01  2.3552035914197845e+01  2.4350471628493420e+01  2.4374193874602138e+01  2.4878408704388246e+01  2.0503655442679285e+01  3.5774325082694993e+01  2.0386013722881049e+01  2.1467533411326322e+01  6.4711227433703755e+01  2.0915797678515112e+01  7.0300808718330700e+01  2.1078815322838146e+01  2.1047519409162568e+01  6.8727647053132955e+01  2.0301884579068396e+01  3.2766128792715982e+01  2.0602956162870633e+01  3.3670277831469967e+01  3.3451028298725625e+01  4.8246818236033157e+01  3.9512395434308253e+01  3.5704832342408139e+01  4.9317985855941423e+01  2.5524963851330153e+01  2.0762555729455002e+01  3.3550124275009040e+01  5.4200830657065211e+01  2.1689672577425821e+01  2.1778569800111068e+01  2.6417213238590666e+01  2.0580129667921216e+01  2.4595329285338007e+01  3.5013361865616211e+01  3.6832713990521256e+01  5.1734580446379098e+01  6.0606164476457145e+01  3.0081128773101309e+01  3.4794092873329376e+01  2.4056934800056055e+01  2.3564998523912987e+01  2.4959386692238787e+01  2.2409749781548943e+01  2.2471407683713192e+01  2.0365711290159592e+01  6.9117022571393150e+01  6.2733434393577468e+01  2.1420985984052994e+01  3.4453301331621169e+01  5.4139851843695823e+01  2.2264467972654661e+01  3.3172244097141935e+01  2.2071391347877785e+01  2.1716560499404267e+01  2.5052279874421618e+01  4.2477348869453735e+01  2.2936255959056602e+01  2.8785155161949032e+01  6.9983156481417055e+01  2.0966025296362151e+01  2.0319020024415689e+01  3.2955141972373688e+01  2.9160681988075254e+01  2.2191174311194892e+01  3.8746625763551414e+01  3.4348888004737702e+01  3.4553423317216733e+01  2.1324689232383736e+01  2.1266390043417680e+01  3.0780655989339692e+01  6.6010881284497600e+01  6.5050448640402522e+01  6.6965411308536815e+01  3.9795606181323855e+01  3.9319964491348045e+01  6.2971360301282736e+01  2.6172711982948396e+01  3.6341272840889900e+01  3.5080618673720721e+01  2.1981013960497709e+01  2.5868643916413220e+01  2.4186837854574296e+01  4.3518822126865814e+01  2.3181574553960594e+01  2.0473748086780308e+01  2.2271723899686680e+01  2.1991569602236037e+01  3.2008002594122338e+01  2.4220840322381946e+01  2.2749628516216692e+01  3.6179824185791574e+01  3.5836191561975532e+01  2.2736385172320446e+01  2.2980782264908672e+01  4.5916283779016986e+01  4.6967526872649600e+01  2.5751813696739806e+01  2.1033183303514694e+01  2.4393616817006791e+01  2.8515494775942681e+01  4.8941261259734148e+01  3.1190908939946041e+01  5.6192916234466132e+01  3.3329740847737909e+01  3.4288382828565268e+01  3.5490884983154153e+01  5.0161392386735926e+01  5.2514893934626912e+01  3.4920997921190363e+01  2.4137508380266649e+01  2.4181144444473535e+01  5.0274286967288091e+01  3.6156945957701616e+01  4.8282572048816562e+01  5.5821904806204465e+01  3.4008504711840658e+01  3.7385932439221961e+01  2.4811705567156789e+01  2.2420388703798395e+01  2.2393739456307621e+01  4.3314533663632496e+01  4.3164959748279188e+01  5.9887192726216981e+01  2.2296500612753110e+01  2.2167527099962076e+01  2.1889959316605101e+01  4.1756394005571792e+01  2.2861944467138709e+01  2.5479469438965726e+01  4.1523491685236372e+01  2.6245961884437037e+01  2.7020422314183708e+01  2.4568149768934745e+01  3.6946305866137862e+01  3.6322598202183443e+01  2.5475698611792861e+01  2.7426595585806062e+01  2.0607415999041457e+01  6.2611794355656180e+01  2.2953820578430683e+01  3.3483676839196178e+01  2.0977951854261207e+01  2.0808852238446804e+01  2.3462177435344838e+01  2.2878499100265078e+01  2.2412098516931060e+01  3.5127892869058329e+01  4.4553433397971077e+01  4.5613728799361041e+01  2.3338140357985843e+01  2.3540094867498986e+01  2.9390889304720314e+01  3.1952621749309600e+01  3.5543809777428351e+01  3.0208277452664927e+01  2.1977764071284295e+01  2.2063351575062285e+01  2.1557554357393343e+01  3.5060209328123882e+01  3.3240030407957029e+01  2.0290203920069292e+01  2.0893568720742699e+01  7.0523151934545027e+01  3.2618023279013990e+01  3.6985160274864995e+01  2.9899275897729858e+01  4.5372250040030060e+01  2.7160819516534787e+01  2.2775437327933780e+01  2.2274537994730135e+01  3.5645193432964511e+01  3.6384879691623830e+01  4.8779320242774986e+01  2.3374396565435823e+01  2.1075306089159866e+01  2.0978579416803502e+01  2.0824921820292371e+01  2.1087643819487194e+01  2.3738319748093204e+01  4.5943339950917128e+01  3.8910281089504679e+01  2.4248404893325763e+01  2.4159688671093587e+01  2.4557038815495009e+01  2.3408607223898414e+01  2.2129387829283569e+01  4.1611516064655071e+01  4.1017426387189481e+01  5.9224843898708933e+01  4.7776424713763809e+01  2.8999483970390838e+01  6.2264513837254654e+01  3.6269356108623825e+01  3.1000206460856276e+01  2.3281674240208890e+01  6.5052959817119998e+01  3.8552780729288266e+01  2.1607795224037844e+01  2.1678984967850507e+01  2.0580219727069483e+01  3.5624484924188557e+01  5.6668606837603335e+01  3.2854478188202904e+01  3.5430650177005347e+01  3.5697936408550476e+01  3.5537435149275346e+01  4.5280430118535314e+01  2.2703044020686882e+01  6.7096508442557848e+01  2.0767646173086348e+01  4.8526157284986866e+01  2.7881322792108922e+01  3.5106981779954239e+01  2.1348993515815586e+01  2.1802171599639994e+01  2.6021930961485733e+01  4.7329337243081469e+01  2.3928943170838576e+01  5.3987989964409977e+01  2.2911993146900766e+01  2.0590464292665711e+01  3.6156149115556374e+01  2.7710813075720768e+01  4.7139185582317232e+01  2.1832959492369866e+01  3.6025883725866613e+01  2.0918644897001958e+01  3.2722808828540444e+01  7.0364268439769262e+01  2.0298489149699986e+01  3.4201231213598390e+01  2.3585719001026661e+01  2.0879000175487857e+01  2.2519377852728539e+01  3.6070340870961445e+01  2.7264005570106793e+01  2.1743264079808235e+01  2.3791757625402813e+01  6.3545819728727956e+01  3.6849875687159880e+01  3.5760983763325427e+01  3.5385562823794949e+01  2.3136382611282702e+01  3.0065454640176757e+01  3.1456327078624003e+01  3.5935565609071638e+01  2.1583332772716162e+01  3.5451766697762530e+01  2.3079829084452538e+01  3.4529951620375854e+01  5.2133426776009891e+01  3.8400972607269885e+01  2.1444933692690718e+01  5.3292680682404843e+01  2.5692726381459593e+01  2.1330353284956747e+01  2.1740810620424522e+01  2.1678186675142882e+01  2.4642108818058663e+01  2.4633963562426921e+01  2.0641952088374516e+01  3.5301331974916145e+01  5.6185904432473912e+01  3.2530850136348157e+01  2.5156603877838325e+01  2.2186218622991852e+01  3.7997134758279273e+01  3.5232647447072708e+01  2.0532419980945228e+01  5.0872067867931193e+01  3.5225305134494718e+01  3.5818857809746106e+01  2.4261975945895109e+01  3.6195213655843425e+01  3.4696091178647983e+01  5.8630985897144186e+01  2.1507567469431720e+01  3.4694554817272603e+01  3.5681790641584804e+01  2.1586713337109543e+01  2.1435894402546680e+01  2.1439915163313760e+01  2.0591506199481898e+01  6.6195878518240661e+01  2.9736047944031860e+01  5.1613800106658950e+01  2.4499340561001940e+01  3.5516037089579065e+01  3.2780913001893950e+01  2.8872397622914367e+01  3.8698290982490143e+01  4.9052727016446212e+01  5.3095251360543152e+01  2.2228607740750689e+01  3.3733360055087338e+01  2.1161844149873033e+01  2.1173196710209407e+01  3.7006058780401375e+01  2.7227130587594878e+01  6.1491325684610544e+01  2.1943289054441145e+01  5.9546601240326680e+01  6.0928915099251533e+01  2.0693292412384434e+01  2.0628090524269581e+01  6.4348933332370891e+01  6.4525279408923979e+01  4.3733115075239986e+01  2.7204209647825646e+01  2.3352091322780414e+01  2.3294905187365146e+01  2.7305357221524631e+01  2.5961128542577178e+01  2.4276147037483632e+01  2.0493172606977154e+01  2.4427214047614456e+01  2.8843166569036054e+01  4.9092707020585799e+01  4.6188934186247891e+01  2.3143635983913043e+01  2.2792723857869532e+01  2.4288750941366835e+01  2.6840806837727438e+01  2.1995131322003534e+01  4.8347801221542575e+01  3.7179505055230003e+01  3.4918339497139662e+01  3.8238200596507824e+01  3.7749918495034343e+01  5.1108344017876135e+01  2.0414132025212254e+01  6.8198276480933714e+01  6.7712023706893433e+01  6.7756615627852042e+01  2.0459857201026725e+01  2.0396289968596736e+01  2.1158603576374599e+01  3.4678270342196114e+01  2.1441045002598447e+01  4.0224997978880175e+01  2.1851557771286906e+01  2.1272484712319898e+01  2.1190845193805085e+01  3.4373494342542102e+01  3.3957776184674884e+01  3.4180222464462837e+01  2.4257898113115111e+01  6.8599782040225577e+01  3.3747714317586542e+01  2.1102178905725253e+01  2.0752975421842102e+01  3.4082594699645625e+01  2.5278275032892378e+01  3.2513278084455315e+01  5.0541748739921154e+01  3.7214771855139475e+01  2.1493486779570222e+01  3.5902666227129217e+01  2.2312618744771662e+01  2.1536585304212352e+01  2.1610476440698704e+01  2.1285359932382693e+01  5.5564283257037573e+01  2.5148702956745925e+01  6.4029148412050205e+01  2.1371558216862439e+01  3.4906588287033202e+01  2.1758634577244596e+01  3.8847522423766421e+01  3.4125510887527490e+01  2.0433193223286064e+01  2.5856443152866508e+01  6.3773726715949692e+01  2.1905359625781298e+01  2.0897333543805424e+01  2.3070501906468351e+01  4.6237377670761759e+01  3.3039001900114044e+01  2.2555742565315825e+01  2.5912192231036279e+01  2.4453672645789439e+01  2.3811963711235247e+01  5.6437955247135470e+01  4.4656926463274431e+01  3.1451893382673578e+01  2.4393950744069418e+01  2.2527659051719141e+01  2.3750176724687485e+01  2.4644587525183454e+01  2.4859334603562683e+01  3.4927176168278713e+01  3.6597796817666989e+01  3.2251060778568359e+01  2.1500349853434148e+01  3.5854648532473881e+01  2.1859973863502894e+01  5.1140748997655869e+01  3.6107655327036404e+01  3.6691477295690660e+01  3.6561328566847273e+01  3.7941126888254807e+01  2.2907284984625839e+01  2.8337841648839898e+01  2.2205501348570102e+01  2.2299539068960389e+01  2.2077322298973161e+01  2.5721587865215636e+01  2.0646634946901528e+01  2.1498472137952682e+01  2.6988887619007887e+01  6.4123127500363793e+01  6.5489512846739515e+01  5.9140134594729098e+01  2.6301056592093015e+01  3.3384711348752738e+01  3.2429031897648777e+01  2.3032606054814707e+01  2.3645424211399973e+01  5.7329902317233994e+01  4.6134469728172910e+01  2.0681770958871443e+01  3.8302653573783992e+01  4.0108001765253128e+01  2.2465183438163351e+01  5.5402993138757722e+01  2.2912849965623703e+01  4.0671734463889862e+01  2.2683881581820380e+01  4.1059772885724016e+01  2.7771563043914021e+01  2.8333353387491499e+01  2.4034505732499721e+01  4.7725778382888549e+01  2.4213024145303137e+01  2.2570587171450651e+01  2.4164415880593172e+01  2.3768885675935742e+01  4.7707055345671968e+01  2.4992967369958038e+01  2.6546655401087499e+01  4.2864296373894241e+01  2.6957415382259384e+01  2.2415604457849277e+01  4.0285181910746033e+01  2.0393717387188403e+01  6.8411839548085680e+01  3.786