<?xml version="1.0"?>
<VTKFile type="UnstructuredGrid"  version="0.1"  >
<UnstructuredGrid>
<Piece  NumberOfPoints="2331" NumberOfCells="4248">
<Points>
<DataArray  type="Float64"  NumberOfComponents="3"  format="ascii">0 0.3 0  0 0 0  0.04999999999999999 0 0  0.0514582251803892 0.02410733605106462 0  0.0558116365147896 0.04786313285751154 0  0.06299675146291706 0.07092097740850717 0  0.07290879486935808 0.09294463440875382 0  0.08540322682126872 0.1136129493462312 0  0.1002978503657798 0.132624531648159 0  0.117375468351841 0.1497021496342203 0  0.1363870506537689 0.1645967731787313 0  0.1570553655912463 0.177091205130642 0  0.1790790225914929 0.187003248537083 0  0.2021368671424885 0.1941883634852104 0  0.2258926639489354 0.1985417748196108 0  0.25 0.2 0  0.2741073360510646 0.1985417748196108 0  0.2978631328575116 0.1941883634852104 0  0.3209209774085071 0.187003248537083 0  0.3429446344087537 0.177091205130642 0  0.3636129493462312 0.1645967731787313 0  0.3826245316481591 0.1497021496342202 0  0.3997021496342202 0.132624531648159 0  0.4145967731787313 0.1136129493462312 0  0.427091205130642 0.09294463440875371 0  0.4370032485370829 0.07092097740850713 0  0.4441883634852104 0.04786313285751155 0  0.4485417748196108 0.02410733605106461 0  0.45 0 0  0.55 0 0  0.5514582251803892 0.02410733605106462 0  0.5558116365147896 0.04786313285751154 0  0.5629967514629171 0.07092097740850717 0  0.5729087948693581 0.09294463440875382 0  0.5854032268212688 0.1136129493462312 0  0.6002978503657798 0.132624531648159 0  0.617375468351841 0.1497021496342203 0  0.6363870506537689 0.1645967731787313 0  0.6570553655912463 0.177091205130642 0  0.6790790225914929 0.187003248537083 0  0.7021368671424885 0.1941883634852104 0  0.7258926639489354 0.1985417748196108 0  0.75 0.2 0  0.7741073360510646 0.1985417748196108 0  0.7978631328575116 0.1941883634852104 0  0.8209209774085071 0.187003248537083 0  0.8429446344087537 0.177091205130642 0  0.8636129493462312 0.1645967731787313 0  0.8826245316481591 0.1497021496342202 0  0.8997021496342202 0.132624531648159 0  0.9145967731787312 0.1136129493462312 0  0.927091205130642 0.09294463440875371 0  0.9370032485370829 0.07092097740850713 0  0.9441883634852104 0.04786313285751155 0  0.9485417748196108 0.02410733605106461 0  0.95 0 0  1 0 0  1 0.3 0  0.9758926639489353 0.3014582251803892 0  0.9521368671424885 0.3058116365147896 0  0.9290790225914928 0.3129967514629171 0  0.9070553655912461 0.3229087948693581 0  0.8863870506537688 0.3354032268212687 0  0.867375468351841 0.3502978503657798 0  0.8502978503657798 0.367375468351841 0  0.8354032268212687 0.3863870506537689 0  0.822908794869358 0.4070553655912464 0  0.8129967514629171 0.4290790225914929 0  0.8058116365147896 0.4521368671424885 0  0.8014582251803892 0.4758926639489354 0  0.8 0.4999999999999999 0  0.8014582251803892 0.5241073360510646 0  0.8058116365147896 0.5478631328575115 0  0.8129967514629171 0.5709209774085071 0  0.8229087948693581 0.5929446344087538 0  0.8354032268212688 0.6136129493462312 0  0.8502978503657798 0.632624531648159 0  0.867375468351841 0.6497021496342202 0  0.8863870506537689 0.6645967731787313 0  0.9070553655912463 0.677091205130642 0  0.9290790225914929 0.6870032485370829 0  0.9521368671424885 0.6941883634852104 0  0.9758926639489354 0.6985417748196108 0  1 0.7 0  1 1 0  0.95 1 0  0.9485417748196108 0.9758926639489353 0  0.9441883634852104 0.9521368671424885 0  0.9370032485370829 0.9290790225914928 0  0.927091205130642 0.9070553655912463 0  0.9145967731787312 0.8863870506537688 0  0.8997021496342201 0.8673754683518409 0  0.882624531648159 0.8502978503657798 0  0.863612949346231 0.8354032268212686 0  0.8429446344087537 0.822908794869358 0  0.8209209774085071 0.8129967514629171 0  0.7978631328575114 0.8058116365147896 0  0.7741073360510646 0.8014582251803892 0  0.75 0.8 0  0.7258926639489353 0.8014582251803892 0  0.7021368671424885 0.8058116365147896 0  0.6790790225914928 0.8129967514629171 0  0.6570553655912461 0.8229087948693581 0  0.6363870506537688 0.8354032268212688 0  0.617375468351841 0.8502978503657798 0  0.6002978503657798 0.867375468351841 0  0.5854032268212687 0.8863870506537689 0  0.572908794869358 0.9070553655912463 0  0.5629967514629171 0.9290790225914929 0  0.5558116365147896 0.9521368671424885 0  0.5514582251803892 0.9758926639489355 0  0.55 0.9999999999999999 0  0.45 0.9999999999999999 0  0.4485417748196108 0.9758926639489353 0  0.4441883634852104 0.9521368671424885 0  0.4370032485370829 0.9290790225914928 0  0.427091205130642 0.9070553655912463 0  0.4145967731787313 0.8863870506537688 0  0.3997021496342201 0.8673754683518409 0  0.382624531648159 0.8502978503657798 0  0.363612949346231 0.8354032268212686 0  0.3429446344087536 0.822908794869358 0  0.3209209774085071 0.8129967514629171 0  0.2978631328575115 0.8058116365147896 0  0.2741073360510646 0.8014582251803892 0  0.25 0.8 0  0.2258926639489353 0.8014582251803892 0  0.2021368671424885 0.8058116365147896 0  0.1790790225914928 0.8129967514629171 0  0.1570553655912462 0.8229087948693581 0  0.1363870506537688 0.8354032268212688 0  0.117375468351841 0.8502978503657798 0  0.1002978503657797 0.867375468351841 0  0.08540322682126869 0.8863870506537689 0  0.07290879486935797 0.9070553655912463 0  0.06299675146291703 0.9290790225914929 0  0.05581163651478957 0.9521368671424885 0  0.0514582251803892 0.9758926639489355 0  0.04999999999999999 0.9999999999999999 0  0 1 0  -0 0.7000000000000001 0  0.0241073360510646 0.6985417748196108 0  0.04786313285751161 0.6941883634852104 0  0.07092097740850711 0.6870032485370829 0  0.09294463440875372 0.677091205130642 0  0.1136129493462312 0.6645967731787312 0  0.1326245316481591 0.6497021496342202 0  0.1497021496342202 0.632624531648159 0  0.1645967731787313 0.6136129493462312 0  0.177091205130642 0.5929446344087537 0  0.187003248537083 0.5709209774085071 0  0.1941883634852104 0.5478631328575115 0  0.1985417748196108 0.5241073360510646 0  0.2 0.5 0  0.1985417748196108 0.4758926639489353 0  0.1941883634852104 0.4521368671424885 0  0.1870032485370829 0.4290790225914928 0  0.177091205130642 0.4070553655912463 0  0.1645967731787313 0.3863870506537688 0  0.1497021496342202 0.3673754683518409 0  0.132624531648159 0.3502978503657798 0  0.113612949346231 0.3354032268212686 0  0.09294463440875361 0.322908794869358 0  0.07092097740850711 0.3129967514629171 0  0.04786313285751148 0.3058116365147896 0  0.02410733605106464 0.3014582251803892 0  0.6985417748196108 0.5241073360510646 0  0.7 0.5 0  0.6985417748196108 0.4758926639489353 0  0.6941883634852104 0.4521368671424885 0  0.6870032485370829 0.4290790225914928 0  0.677091205130642 0.4070553655912463 0  0.6645967731787312 0.3863870506537688 0  0.6497021496342201 0.3673754683518409 0  0.632624531648159 0.3502978503657798 0  0.613612949346231 0.3354032268212686 0  0.5929446344087537 0.322908794869358 0  0.5709209774085071 0.3129967514629171 0  0.5478631328575114 0.3058116365147896 0  0.5241073360510646 0.3014582251803892 0  0.4999999999999999 0.3 0  0.4758926639489353 0.3014582251803892 0  0.4521368671424885 0.3058116365147896 0  0.4290790225914928 0.3129967514629171 0  0.4070553655912462 0.3229087948693581 0  0.3863870506537688 0.3354032268212687 0  0.367375468351841 0.3502978503657798 0  0.3502978503657798 0.367375468351841 0  0.3354032268212687 0.3863870506537689 0  0.322908794869358 0.4070553655912464 0  0.3129967514629171 0.4290790225914929 0  0.3058116365147896 0.4521368671424885 0  0.3014582251803892 0.4758926639489354 0  0.3 0.4999999999999999 0  0.3014582251803892 0.5241073360510646 0  0.3058116365147896 0.5478631328575115 0  0.3129967514629171 0.5709209774085071 0  0.3229087948693581 0.5929446344087538 0  0.3354032268212687 0.6136129493462312 0  0.3502978503657798 0.632624531648159 0  0.367375468351841 0.6497021496342202 0  0.3863870506537689 0.6645967731787313 0  0.4070553655912463 0.677091205130642 0  0.4290790225914929 0.6870032485370829 0  0.4521368671424885 0.6941883634852104 0  0.4758926639489354 0.6985417748196108 0  0.4999999999999999 0.7 0  0.5241073360510646 0.6985417748196108 0  0.5478631328575116 0.6941883634852104 0  0.5709209774085071 0.6870032485370829 0  0.5929446344087537 0.677091205130642 0  0.6136129493462312 0.6645967731787312 0  0.6326245316481591 0.6497021496342202 0  0.6497021496342202 0.632624531648159 0  0.6645967731787312 0.6136129493462312 0  0.677091205130642 0.5929446344087537 0  0.6870032485370829 0.5709209774085071 0  0.6941883634852104 0.5478631328575115 0  0 0.15 0  1 0.15 0  1 0.85 0  0 0.8500000000000001 0  0 0.075 0  1 0.075 0  1 0.925 0  0 0.925 0  0.5 0.8127595604293815 0  0.5069440078039168 0.190422209288238 0  0.25 0.3127595604293815 0  0.756944007803917 0.3095777907117619 0  0.756944007803917 0.6904222092882382 0  0.25 0.6872404395706185 0  0 0.225 0  0.4255768646051012 0.2241073097134061 0  1 0.7749999999999999 0  0.6773391559270888 0.2766774022734219 0  1 0.225 0  0.6755768646051011 0.7241073097134062 0  0 0.7750000000000001 0  0.5818971135297744 0.2287925518358889 0  0.8318971135297746 0.728792551835889 0  0.1659156081861886 0.7301636995921477 0  0.08376842746533225 0.2299656297760495 0  0.4236002201977974 0.7746535834185855 0  0.0840843918138115 0.7698363004078523 0  0.3340843918138113 0.7301636995921477 0  0.3340843918138114 0.2698363004078523 0  0.9159156081861887 0.2301636995921477 0  0.5840843918138116 0.7698363004078522 0  0.1659156081861887 0.2698363004078523 0  0.9162315725346678 0.7700343702239506 0  0.8340843918138114 0.2698363004078523 0  0.75 0.6146645247768686 0  0.5 0.1125158665330878 0  0.75 0.3874841334669124 0  0.2504983345544904 0.6122915843562002 0  0.2504983345544902 0.3877084156437999 0  0.5 0.8879783056303169 0  0.7005361650220154 0.3333055947145943 0  0.70416808765371 0.6599554817221275 0  0.449930214263529 0.1678187287522426 0  0.2247310981387008 0.7415600637745463 0  0.5155081196221678 0.7563797802146907 0  0.2752689018612993 0.2584399362254537 0  0.05605196690611226 0.8246131191226815 0  0.9439480330938878 0.1
[...]
<PointData  Scalars="Temperature"> 
<DataArray  type="Float64"  Name="Temperature"  format="ascii">1.1218785845980385e+02  1.2363184943187419e+02  1.2360796879811944e+02  1.2335190893624964e+02  1.2263491767601165e+02  1.2151790776194758e+02  1.2002205249488883e+02  1.1816412869262518e+02  1.1596694435254798e+02  1.1340604961748771e+02  1.1041685242003335e+02  1.0703508318968728e+02  1.0335591492722071e+02  9.9452987677903096e+01  9.5400768429093105e+01  9.1301831669230125e+01  8.7182502183845898e+01  8.3053240370362261e+01  7.9017815568759133e+01  7.5061024347469811e+01  7.1362129669617147e+01  6.8014385750880024e+01  6.5114620181478102e+01  6.2810760197950700e+01  6.1075839298157796e+01  5.9893692121016301e+01  5.9147658562191623e+01  5.8763149241853803e+01  5.8648029882702858e+01  5.7835222877781590e+01  5.7743655210445816e+01  5.7439816887528913e+01  5.6826914915426073e+01  5.5829497612945296e+01  5.4341394219621350e+01  5.2372783743572818e+01  4.9996183206164076e+01  4.7304794004178049e+01  4.4445085877167308e+01  4.1585035746557558e+01  3.8868848015778354e+01  3.6403329690182829e+01  3.4236600078588673e+01  3.2370284952859578e+01  3.0784363306052036e+01  2.9467535086182096e+01  2.8364922486514271e+01  2.7460484704568554e+01  2.6733319076822649e+01  2.6145853919382944e+01  2.5678817225482739e+01  2.5305653476529091e+01  2.5017597983133488e+01  2.4807761007293418e+01  2.4674868549808625e+01  2.4627780006075501e+01  2.4622043881210402e+01  2.6636124116729572e+01  2.6739673823565251e+01  2.7039561308614882e+01  2.7509559719156886e+01  2.8094674437991657e+01  2.8725097797596760e+01  2.9306702663639875e+01  2.9761897204676703e+01  3.0014416697049779e+01  3.0039304811365238e+01  2.9800967976121946e+01  2.9368323192674854e+01  2.8800397641650243e+01  2.8176969439205504e+01  2.7570612718753747e+01  2.7012524894109664e+01  2.6500364261411349e+01  2.6028251615173502e+01  2.5564642058956348e+01  2.5100037205325563e+01  2.4645244800181711e+01  2.4198612767351243e+01  2.3791613070067221e+01  2.3443523378622313e+01  2.3179500577808248e+01  2.3016368718812526e+01  2.2959059671150307e+01  2.1899936157747479e+01  2.1901814084445444e+01  2.1925138670594109e+01  2.1990921637352766e+01  2.2094714172281297e+01  2.2237087125187816e+01  2.2420310940725372e+01  2.2648701845724247e+01  2.2930031441630344e+01  2.3272395527841979e+01  2.3686701344088448e+01  2.4176983430834273e+01  2.4736550965596354e+01  2.5374158735467830e+01  2.6075975964122762e+01  2.6864100650836843e+01  2.7724436787300750e+01  2.8648168646895535e+01  2.9598040770830206e+01  3.0533019342579603e+01  3.1369482856079799e+01  3.2077811974200429e+01  3.2578635308134565e+01  3.2894590753637551e+01  3.3025902081431134e+01  3.3035444796502304e+01  3.3006092743278970e+01  3.2987918601197052e+01  3.3269808575924635e+01  3.3391189114617596e+01  3.3736576463113842e+01  3.4326020410761068e+01  3.5200898331319408e+01  3.6413882486467593e+01  3.7948884098246495e+01  3.9804393885372740e+01  4.1894839731076267e+01  4.4166316163164055e+01  4.6457725217599460e+01  4.8626046537874771e+01  5.0563421203080395e+01  5.2142015628285456e+01  5.3342054332503395e+01  5.4140613663120064e+01  5.4601841397052326e+01  5.4776282844692581e+01  5.4725370311995547e+01  5.4520177618182963e+01  5.4199457878010598e+01  5.3801361229506014e+01  5.3374192682902219e+01  5.2963014420625164e+01  5.2611775035074011e+01  5.2376805261883312e+01  5.2283216220747875e+01  5.2282778244938491e+01  5.5998655805893911e+01  5.6038621881413647e+01  5.6162818454013440e+01  5.6375976187085115e+01  5.6702360183362643e+01  5.7181017175910306e+01  5.7883510196796287e+01  5.8892756903601253e+01  6.0303805207019842e+01  6.2161050898304552e+01  6.4530480995832121e+01  6.7365815940641482e+01  7.0599446180658745e+01  7.4047236161604815e+01  7.7564817726079937e+01  8.1029080922743077e+01  8.4417739082689891e+01  8.7788308978695994e+01  9.1250656169369407e+01  9.4796948931984531e+01  9.8402083163957087e+01  1.0192162324376447e+02  1.0522075999260645e+02  1.0809705829779136e+02  1.1028756588960800e+02  1.1169480702522833e+02  2.7800038347836921e+01  2.8418848646651686e+01  2.9191176001067230e+01  3.0119567597113569e+01  3.1222272391515006e+01  3.2558672144784374e+01  3.4198433006035842e+01  3.6184640480896611e+01  3.8573188761102365e+01  4.1294445749477035e+01  4.4332445479757887e+01  4.7649791098910079e+01  5.1146819727987591e+01  5.4797021488135236e+01  5.8554175748647062e+01  6.2403594298495996e+01  6.6262006221019902e+01  7.0082410135866198e+01  7.3687544469623191e+01  7.6950940996508422e+01  7.9580731252267640e+01  8.1465468367325116e+01  8.2408037215450307e+01  8.2365495246685384e+01  8.1291781240850710e+01  7.9338801236253659e+01  7.6648773631519930e+01  7.3452055333818393e+01  7.0025007458488872e+01  6.6576434960353566e+01  6.3258405712670154e+01  6.0035254111215295e+01  5.6977315339418695e+01  5.4014439828297228e+01  5.1106223238522276e+01  4.8277320001344151e+01  4.5494485715330889e+01  4.2870803306189686e+01  4.0401647209437847e+01  3.8161987811960771e+01  3.6130796793384683e+01  3.4321633350028982e+01  3.2710559240578036e+01  3.1311897479841779e+01  3.0085262151131211e+01  2.9049889603911350e+01  2.8218798477875040e+01  2.7598778503465486e+01  2.7202862436549516e+01  2.7035146799736538e+01  2.7090930109258597e+01  2.7352730882007236e+01  1.1816938841494633e+02  2.5612598547237759e+01  2.2401043629405233e+01  5.4065813448171383e+01  1.2196700250198502e+02  2.4926634253970281e+01  2.2051721674582659e+01  5.2859400688741431e+01  3.5076529768017238e+01  5.7855795453073824e+01  8.9218489521962653e+01  3.2660129303084261e+01  2.5996067510262328e+01  5.5621728523105816e+01  1.1425660895031335e+02  6.7246324655411655e+01  2.2763718896972453e+01  3.8624585971223162e+01  2.6286871876501909e+01  2.7957902158932779e+01  5.5315802531338917e+01  4.9554908065252292e+01  2.4491564842950869e+01  5.5832988309280118e+01  1.1092243461950856e+02  4.0315558834860248e+01  5.5442031842608330e+01  4.8699739673206047e+01  8.0117522334906937e+01  2.7104160164394628e+01  3.1561276460013865e+01  1.0066970253268128e+02  2.3158338495621400e+01  2.9644878491782837e+01  2.6456688360728407e+01  5.8383603219838079e+01  3.1255833630048219e+01  6.0992623175619592e+01  8.5244215427928822e+01  3.4023458725725035e+01  3.4953476846811284e+01  2.6954671370131027e+01  6.2870386298115044e+01  5.4218041115283100e+01  3.4860700595739139e+01  8.7411947722195023e+01  5.4565523447584596e+01  2.6143897375768738e+01  1.1561027924145102e+02  2.2679557488831133e+01  6.0487684863652824e+01  2.6547088028599489e+01  3.4881399748186936e+01  3.7343430246404232e+01  5.7471823071360326e+01  9.4528086713982518e+01  5.3487178006304006e+01  8.3440498480994378e+01  3.2726296566623176e+01  5.8283795262097541e+01  2.9763327637442703e+01  2.7320767462125627e+01  8.0339366672643791e+01  6.8033598802767671e+01  3.3120435688213711e+01  3.3384227234296610e+01  9.4252391303054964e+01  5.2017497386269582e+01  5.3166333667440057e+01  2.5651761010093328e+01  3.0382244582507628e+01  4.3641687523873713e+01  7.3157174340444087e+01  7.5225128121775796e+01  2.9456766154952252e+01  3.0084718395105064e+01  4.2959698078118642e+01  2.5388891256516548e+01  3.1745424780555172e+01  2.8434323364285810e+01  5.8238985778920352e+01  7.4459692461987601e+01  4.4280594004469471e+01  4.5058786851488584e+01  5.4789629047318734e+01  2.3749577520903948e+01  2.3758524952394684e+01  3.7236316451474281e+01  1.0709202343748983e+02  5.5736622205704919e+01  2.7832612065077516e+01  5.5253491318431770e+01  1.0515476805923949e+02  5.6157368456831925e+01  2.6680827219573331e+01  2.8346060962802348e+01  2.3008545190489553e+01  1.1191247436973042e+02  2.5549758800253148e+01  2.2334246665936597e+01  1.1897026458209791e+02  5.3806664124394658e+01  3.0637066653046301e+01  2.5186659621035897e+01  5.5780596761535541e+01  2.6875177595164466e+01  3.1240045008869316e+01  4.9753655799754604e+01  9.9995029970860585e+01  2.6917354793507521e+01  7.9228829273174682e+01  5.7038320661543580e+01  5.4843078074396900e+01  1.1234026764758960e+02  2.3074694081250083e+01  5.9899143893815243e+01  8.9647021295030655e+01  3.3790786832727974e+01  2.4566912620924597e+01  8.5804855884175964e+01  5.7164408151039218e+01  3.8369757102991677e+01  3.8862352863227045e+01  4.0645624938752178e+01  6.5888049368459193e+01  2.8412362099359807e+01  6.8958218538057309e+01  2.8012247985484773e+01  3.5515215772303769e+01  3.9711569732062685e+01  4.9313904304754260e+01  3.5280137726776587e+01  2.4668704393308271e+01  4.7629163249223083e+01  5.4681124315489797e+01  8.1024371695146996e+01  4.8993075454077733e+01  9.9338529982158690e+01  2.9223254892146894e+01  3.1942028790588740e+01  6.1953725245278441e+01  1.1396671119929879e+02  2.9908483211850978e+01  2.6441825832216399e+01  5.5180029090274274e+01  3.3713029831269189e+01  5.4710903905268324e+01  2.5970882196812248e+01  3.1032975872584718e+01  2.2605244546979705e+01  6.0964032409559358e+01  3.2626613101953595e+01  3.2922692314209478e+01  5.9336160702673773e+01  1.1613388507166574e+02  2.6642760141152365e+01  2.6873480539055016e+01  2.6160784207785451e+01  6.4404203299153082e+01  8.5618021171778850e+01  5.8395719866239247e+01  8.3435011096411543e+01  5.6058714901592488e+01  5.9291092924896688e+01  5.7402134771984748e+01  3.0149373914429184e+01  3.1188410631971330e+01  3.3051404906252621e+01  3.3297076832626594e+01  3.4342952024161448e+01  2.2591692029819789e+01  5.5793318232791904e+01  2.2214948382600891e+01  2.6519925270939623e+01  1.1280188440870839e+02  2.4702395754439753e+01  1.2319299577713895e+02  2.5248038301064241e+01  2.5133277634559121e+01  1.2019713358040333e+02  2.1939713891866656e+01  5.2442330965082597e+01  2.2899495772997955e+01  5.3428716251582983e+01  5.3188538130881845e+01  8.2222907966642808e+01  6.3788294027756216e+01  5.5795638667409001e+01  8.4299224197850748e+01  3.5484593295575209e+01  2.3339417771678271e+01  5.1769490450135081e+01  9.3174392520508093e+01  2.5809210308177359e+01  2.6051757328097171e+01  3.7017079989224634e+01  2.2821980492800357e+01  3.3013814525952490e+01  5.6568823532780989e+01  5.8078318853440990e+01  8.8800327624646215e+01  1.0511684357014552e+02  4.6342320157033924e+01  5.6094293378254548e+01  3.2813940507056159e+01  3.1549512215106311e+01  3.3745186761089307e+01  2.7554546421543652e+01  2.7664943875800287e+01  2.2147232855343685e+01  1.2093900103410920e+02  1.0903626537018535e+02  2.5104431552094553e+01  5.3507327837643700e+01  9.3193466115139699e+01  2.8512764941860567e+01  5.2856368950267921e+01  2.6708694141441221e+01  2.7146344267974701e+01  3.4908260038157444e+01  7.1033923800652275e+01  2.8912346030434577e+01  4.2100025532267843e+01  1.2258763502807048e+02  2.4866703869482496e+01  2.1995507157968920e+01  5.2647838554383732e+01  4.2988760853635391e+01  2.7128990226100818e+01  6.3911124244984308e+01  5.4169511454987834e+01  5.4403978746789576e+01  2.5967753032810261e+01  2.5851761574686989e+01  4.6272131272001999e+01  1.1511774677613080e+02  1.1334652801778722e+02  1.1689790796017165e+02  6.5611977931457659e+01  6.4860698342961356e+01  1.0956798798942314e+02  3.6739783628763554e+01  5.6730098340111034e+01  5.4918927964795678e+01  2.7740193014372185e+01  3.6931289233679301e+01  3.3143630274610786e+01  7.2892166544192136e+01  2.9453818897626697e+01  2.2490792291239064e+01  2.7169738769808731e+01  2.6518048053854638e+01  5.0526908791860585e+01  3.3104462446959765e+01  2.9683313460014155e+01  5.8521107665764468e+01  5.7985502124539465e+01  2.8983859832696258e+01  2.9579484757513825e+01  7.7302516546523137e+01  7.9264268432866515e+01  3.6753173065069710e+01  2.4075536345399410e+01  3.3455593599659252e+01  4.3028599400174613e+01  8.3456003000697137e+01  4.7013473793041172e+01  9.6967174842198673e+01  5.1318081830554128e+01  5.3201779526814178e+01  5.5379894323451531e+01  8.5619024369658689e+01  9.0167454493419797e+01  5.4360109244375629e+01  3.2118980900178585e+01  3.2508352606346726e+01  8.6165814335760402e+01  5.6544471116427502e+01  8.2621473091209538e+01  9.6293174211742908e+01  5.2695795330430848e+01  5.8914565045781004e+01  3.3808134178810953e+01  2.7887374928479268e+01  2.7896633775339343e+01  7.1803858360399488e+01  7.1319705886152562e+01  1.0383284662218446e+02  2.7354372393055314e+01  2.7061253719323375e+01  2.6291768035540343e+01  6.9951357470739183e+01  2.8889428900154812e+01  3.5125993361514453e+01  6.9371716769006426e+01  3.7051425856364240e+01  3.8526676379784824e+01  3.3913508377427377e+01  6.0456116823035046e+01  5.9129904694704706e+01  3.6156501041375293e+01  4.0563834625868516e+01  2.2892295053393394e+01  1.0879211298535446e+02  3.0112772792118719e+01  5.3546372179708605e+01  2.3913855815583364e+01  2.3448425442454511e+01  3.1369476174371076e+01  3.0010707656867464e+01  2.8835333961980265e+01  5.4856127717764487e+01  7.5428238272344146e+01  7.7354208282573282e+01  3.0160027873089302e+01  3.0593653681323019e+01  4.3315470751259895e+01  5.0374791018412758e+01  5.7515237690927947e+01  4.6665617445181248e+01  2.7780912744151188e+01  2.6779595037374058e+01  2.6666601154807090e+01  5.4968616232297840e+01  5.2955233230593215e+01  2.1900875691611116e+01  2.4624748797053535e+01  1.2362181635290482e+02  5.2281987459928708e+01  6.0329969993221290e+01  4.5889935150627693e+01  7.6731094583962587e+01  3.8909005739243170e+01  2.8581954971027873e+01  2.8552857509921363e+01  5.7670286745813314e+01  5.8903475296671225e+01  8.3106238920977233e+01  3.1201380709269046e+01  2.4185072477859475e+01  2.3921874826698854e+01  2.3503193514125346e+01  2.4213835131176264e+01  3.0832281639284997e+01  7.7581075878045098e+01  6.2194552778960485e+01  3.3182709737401403e+01  3.3024320554593494e+01  3.3694161519872360e+01  3.0168033366365957e+01  2.7073603706732520e+01  6.7989930452313430e+01  6.6962071963206256e+01  1.0257849550726912e+02  8.1490308434958678e+01  4.2593655166833884e+01  1.0819837872484305e+02  5.6902751372029371e+01  4.6688777363092044e+01  3.0559716990496856e+01  1.1339969446749259e+02  6.3148554134649743e+01  2.5601577147664212e+01  2.5750547667025376e+01  2.2805163757254864e+01  5.5892311701596363e+01  9.7808336108283271e+01  5.0384874100522509e+01  5.5314124010394103e+01  5.5741789918544676e+01  5.5528468889247257e+01  7.5759421713823116e+01  2.8751862760033596e+01  1.1714209435752315e+02  2.3339081764279193e+01  8.2451617535678494e+01  4.1445719714529517e+01  5.5027581076045308e+01  2.6118823161723448e+01  2.6079467833761981e+01  3.7192304216954703e+01  8.0830049741915857e+01  3.1789280770353258e+01  9.2894321798872497e+01  2.9573293373436830e+01  2.2859094592109127e+01  5.6384937799695152e+01  4.1153139209855894e+01  7.9927634244015991e+01  2.7384542508998127e+01  5.8342611260786626e+01  2.4708822109449091e+01  5.2395465402367293e+01  1.2331718908099559e+02  2.1928109274892222e+01  5.3004128267342629e+01  3.1515044805403750e+01  2.3658949683141490e+01  2.9129461715631948e+01  5.6326554400171439e+01  4.0238286375391162e+01  2.7233625473493081e+01  3.1063874827728501e+01  1.1060319705718338e+02  5.7802122247683243e+01  5.5826371200272249e+01  5.5461295547779820e+01  3.0634637611821354e+01  4.4769356027767834e+01  4.7571955554841459e+01  5.6003888060208546e+01  2.6826214211989338e+01  5.5423409800538089e+01  3.0255499979798628e+01  5.5579355157702061e+01  8.9328954339710577e+01  6.1559219249797479e+01  2.5167600059532717e+01  9.1650600930224769e+01  3.5391112414735851e+01  2.4858649108710718e+01  2.5928577103162858e+01  2.5753927298451519e+01  3.4171682257327511e+01  3.3899320746449710e+01  2.2998039723892258e+01  5.7051952664795031e+01  9.6849894170337578e+01  4.9778309468341625e+01  3.4795895961714471e+01  2.6979028642465423e+01  6.0650374612535394e+01  5.5141072358355416e+01  2.2679079460079770e+01  8.7187138387104895e+01  5.5038453504670244e+01  5.7961168318248767e+01  3.3222836874510563e+01  5.8524620092251823e+01  5.5928446985284744e+01  1.0139037837553089e+02  2.6476734616019673e+01  5.4548322773009467e+01  5.5710945028251011e+01  2.6792339807518072e+01  2.6418374816132580e+01  2.6410859891984764e+01  2.2830289885187860e+01  1.1547817577061085e+02  4.5704687531432128e+01  8.8411665797089796e+01  3.3459588389841699e+01  5.7560773327441943e+01  5.2033988748569094e+01  4.3731750414023715e+01  6.3947493189897799e+01  8.3861247145337103e+01  9.1172736336990255e+01  2.8447763964036323e+01  5.3496925131897399e+01  2.5480298215860770e+01  2.4442796991393607e+01  5.8289655246342548e+01  3.8745239485032961e+01  1.0682115743768320e+02  2.7739421650347339e+01  1.0313304296056229e+02  1.0566123758931468e+02  2.3150866707095069e+01  2.2971009211852820e+01  1.1214042320270903e+02  1.1240822734384672e+02  7.3549587685064495e+01  3.8959276192055334e+01  3.0600698225350634e+01  3.0770498212007070e+01  3.9021721704066898e+01  3.6110116190178040e+01  3.3346128308874732e+01  2.2556071222874973e+01  3.3103827337608671e+01  4.2313594779616928e+01  8.4067695319760773e+01  7.7754692306980289e+01  3.0571154642077499e+01  2.9082439930021817e+01  3.3064679799567450e+01  3.7983995017818181e+01  2.6521679397975884e+01  8.2579092633252031e+01  6.0446199469306798e+01  5.4812758256115352e+01  6.0710566863360221e+01  5.9917408739712407e+01  8.7592595550457716e+01  2.2305996256800238e+01  1.1919925488876348e+02  1.1828880584011618e+02  1.1838104964351541e+02  2.2439160992990345e+01  2.2242550047492934e+01  2.4412533490530834e+01  5.3964923616555389e+01  2.5145334220051254e+01  6.5174030958714226e+01  2.6274061301446011e+01  2.5838641282811146e+01  2.5607316547569464e+01  5.4201767765059408e+01  5.3744681820193676e+01  5.3989665269417223e+01  3.3120022385845388e+01  1.1996562607383404e+02  5.3513511223139062e+01  2.5317344655874845e+01  2.3308355405785697e+01  5.4713367362171077e+01  3.5131880104507289e+01  5.1436215090186039e+01  8.6618818838652999e+01  5.8940641582425904e+01  2.6599003830220500e+01  5.5943340118024850e+01  2.7514527728391325e+01  2.5393945814370078e+01  2.5576706899111205e+01  2.4740898078590817e+01  9.5727946253925367e+01  3.4643253415779625e+01  1.1142679974568861e+02  2.4968888309130897e+01  5.4751071318412464e+01  2.7149951292186639e+01  6.2176460183243478e+01  5.4780611943587843e+01  2.2365527862668031e+01  3.6216075531221527e+01  1.1107051317386656e+02  2.6380750407414382e+01  2.4639991786564398e+01  2.9306663151384875e+01  7.8272271191556285e+01  5.0762362675683242e+01  2.8424963190097166e+01  3.6115718083933089e+01  3.2787904434599106e+01  3.1811342883325842e+01  9.7431709710232980e+01  7.4647213312141574e+01  4.7631131064998556e+01  3.3281579350559198e+01  2.9167787889681854e+01  3.2071204873929034e+01  3.3976614008886791e+01  3.4143528760114229e+01  5.4465423684294414e+01  5.7215500071413658e+01  4.9161686876953738e+01  2.6607024780236745e+01  5.5891545200126274e+01  2.7500545653805247e+01  8.7744454423862052e+01  5.6710880023440694e+01  5.9583653974955496e+01  5.9400303346663364e+01  6.2027618592210629e+01  3.0061742698410789e+01  4.1107022315469280e+01  2.7043848576830491e+01  2.7325641503229892e+01  2.6774501542514734e+01  3.6537223858784124e+01  2.2998765081914417e+01  2.6480122746402323e+01  3.9498481791807315e+01  1.1162139515441967e+02  1.1415086744185285e+02  1.0235293106859542e+02  3.8056609176737339e+01  5.1435674512833479e+01  4.9528694861461638e+01  3.0231170905051510e+01  3.1023061028927760e+01  9.9091492675054141e+01  7.8551637021703314e+01  2.3088317646821515e+01  6.3105518212647013e+01  6.6592685162245445e+01  2.9014630091798320e+01  9.5494528850082190e+01  2.8766519686791096e+01  6.7480637892895743e+01  2.8259784324351411e+01  6.8062511389555127e+01  4.0096456912587470e+01  4.1307645125673268e+01  3.1969607743895747e+01  8.0965381335392721e+01  3.1960585679989961e+01  2.8132030114644103e+01  3.2843359498743062e+01  3.1805678918959511e+01  8.1462218611422642e+01  3.4525291642365268e+01  3.8572386101827384e+01  7.0771725004259650e+01  3.9343475651556091e+01  2.7920497194408728e+01  6.7080043465689684e+01  2.2238461548176584e+01  1.1960252866335519e+02  6.178