<?xml version="1.0"?>
<VTKFile type="UnstructuredGrid"  version="0.1"  >
<UnstructuredGrid>
<Piece  NumberOfPoints="2331" NumberOfCells="4248">
<Points>
<DataArray  type="Float64"  NumberOfComponents="3"  format="ascii">0 0.3 0  0 0 0  0.04999999999999999 0 0  0.0514582251803892 0.02410733605106462 0  0.0558116365147896 0.04786313285751154 0  0.06299675146291706 0.07092097740850717 0  0.07290879486935808 0.09294463440875382 0  0.08540322682126872 0.1136129493462312 0  0.1002978503657798 0.132624531648159 0  0.117375468351841 0.1497021496342203 0  0.1363870506537689 0.1645967731787313 0  0.1570553655912463 0.177091205130642 0  0.1790790225914929 0.187003248537083 0  0.2021368671424885 0.1941883634852104 0  0.2258926639489354 0.1985417748196108 0  0.25 0.2 0  0.2741073360510646 0.1985417748196108 0  0.2978631328575116 0.1941883634852104 0  0.3209209774085071 0.187003248537083 0  0.3429446344087537 0.177091205130642 0  0.3636129493462312 0.1645967731787313 0  0.3826245316481591 0.1497021496342202 0  0.3997021496342202 0.132624531648159 0  0.4145967731787313 0.1136129493462312 0  0.427091205130642 0.09294463440875371 0  0.4370032485370829 0.07092097740850713 0  0.4441883634852104 0.04786313285751155 0  0.4485417748196108 0.02410733605106461 0  0.45 0 0  0.55 0 0  0.5514582251803892 0.02410733605106462 0  0.5558116365147896 0.04786313285751154 0  0.5629967514629171 0.07092097740850717 0  0.5729087948693581 0.09294463440875382 0  0.5854032268212688 0.1136129493462312 0  0.6002978503657798 0.132624531648159 0  0.617375468351841 0.1497021496342203 0  0.6363870506537689 0.1645967731787313 0  0.6570553655912463 0.177091205130642 0  0.6790790225914929 0.187003248537083 0  0.7021368671424885 0.1941883634852104 0  0.7258926639489354 0.1985417748196108 0  0.75 0.2 0  0.7741073360510646 0.1985417748196108 0  0.7978631328575116 0.1941883634852104 0  0.8209209774085071 0.187003248537083 0  0.8429446344087537 0.177091205130642 0  0.8636129493462312 0.1645967731787313 0  0.8826245316481591 0.1497021496342202 0  0.8997021496342202 0.132624531648159 0  0.9145967731787312 0.1136129493462312 0  0.927091205130642 0.09294463440875371 0  0.9370032485370829 0.07092097740850713 0  0.9441883634852104 0.04786313285751155 0  0.9485417748196108 0.02410733605106461 0  0.95 0 0  1 0 0  1 0.3 0  0.9758926639489353 0.3014582251803892 0  0.9521368671424885 0.3058116365147896 0  0.9290790225914928 0.3129967514629171 0  0.9070553655912461 0.3229087948693581 0  0.8863870506537688 0.3354032268212687 0  0.867375468351841 0.3502978503657798 0  0.8502978503657798 0.367375468351841 0  0.8354032268212687 0.3863870506537689 0  0.822908794869358 0.4070553655912464 0  0.8129967514629171 0.4290790225914929 0  0.8058116365147896 0.4521368671424885 0  0.8014582251803892 0.4758926639489354 0  0.8 0.4999999999999999 0  0.8014582251803892 0.5241073360510646 0  0.8058116365147896 0.5478631328575115 0  0.8129967514629171 0.5709209774085071 0  0.8229087948693581 0.5929446344087538 0  0.8354032268212688 0.6136129493462312 0  0.8502978503657798 0.632624531648159 0  0.867375468351841 0.6497021496342202 0  0.8863870506537689 0.6645967731787313 0  0.9070553655912463 0.677091205130642 0  0.9290790225914929 0.6870032485370829 0  0.9521368671424885 0.6941883634852104 0  0.9758926639489354 0.6985417748196108 0  1 0.7 0  1 1 0  0.95 1 0  0.9485417748196108 0.9758926639489353 0  0.9441883634852104 0.9521368671424885 0  0.9370032485370829 0.9290790225914928 0  0.927091205130642 0.9070553655912463 0  0.9145967731787312 0.8863870506537688 0  0.8997021496342201 0.8673754683518409 0  0.882624531648159 0.8502978503657798 0  0.863612949346231 0.8354032268212686 0  0.8429446344087537 0.822908794869358 0  0.8209209774085071 0.8129967514629171 0  0.7978631328575114 0.8058116365147896 0  0.7741073360510646 0.8014582251803892 0  0.75 0.8 0  0.7258926639489353 0.8014582251803892 0  0.7021368671424885 0.8058116365147896 0  0.6790790225914928 0.8129967514629171 0  0.6570553655912461 0.8229087948693581 0  0.6363870506537688 0.8354032268212688 0  0.617375468351841 0.8502978503657798 0  0.6002978503657798 0.867375468351841 0  0.5854032268212687 0.8863870506537689 0  0.572908794869358 0.9070553655912463 0  0.5629967514629171 0.9290790225914929 0  0.5558116365147896 0.9521368671424885 0  0.5514582251803892 0.9758926639489355 0  0.55 0.9999999999999999 0  0.45 0.9999999999999999 0  0.4485417748196108 0.9758926639489353 0  0.4441883634852104 0.9521368671424885 0  0.4370032485370829 0.9290790225914928 0  0.427091205130642 0.9070553655912463 0  0.4145967731787313 0.8863870506537688 0  0.3997021496342201 0.8673754683518409 0  0.382624531648159 0.8502978503657798 0  0.363612949346231 0.8354032268212686 0  0.3429446344087536 0.822908794869358 0  0.3209209774085071 0.8129967514629171 0  0.2978631328575115 0.8058116365147896 0  0.2741073360510646 0.8014582251803892 0  0.25 0.8 0  0.2258926639489353 0.8014582251803892 0  0.2021368671424885 0.8058116365147896 0  0.1790790225914928 0.8129967514629171 0  0.1570553655912462 0.8229087948693581 0  0.1363870506537688 0.8354032268212688 0  0.117375468351841 0.8502978503657798 0  0.1002978503657797 0.867375468351841 0  0.08540322682126869 0.8863870506537689 0  0.07290879486935797 0.9070553655912463 0  0.06299675146291703 0.9290790225914929 0  0.05581163651478957 0.9521368671424885 0  0.0514582251803892 0.9758926639489355 0  0.04999999999999999 0.9999999999999999 0  0 1 0  -0 0.7000000000000001 0  0.0241073360510646 0.6985417748196108 0  0.04786313285751161 0.6941883634852104 0  0.07092097740850711 0.6870032485370829 0  0.09294463440875372 0.677091205130642 0  0.1136129493462312 0.6645967731787312 0  0.1326245316481591 0.6497021496342202 0  0.1497021496342202 0.632624531648159 0  0.1645967731787313 0.6136129493462312 0  0.177091205130642 0.5929446344087537 0  0.187003248537083 0.5709209774085071 0  0.1941883634852104 0.5478631328575115 0  0.1985417748196108 0.5241073360510646 0  0.2 0.5 0  0.1985417748196108 0.4758926639489353 0  0.1941883634852104 0.4521368671424885 0  0.1870032485370829 0.4290790225914928 0  0.177091205130642 0.4070553655912463 0  0.1645967731787313 0.3863870506537688 0  0.1497021496342202 0.3673754683518409 0  0.132624531648159 0.3502978503657798 0  0.113612949346231 0.3354032268212686 0  0.09294463440875361 0.322908794869358 0  0.07092097740850711 0.3129967514629171 0  0.04786313285751148 0.3058116365147896 0  0.02410733605106464 0.3014582251803892 0  0.6985417748196108 0.5241073360510646 0  0.7 0.5 0  0.6985417748196108 0.4758926639489353 0  0.6941883634852104 0.4521368671424885 0  0.6870032485370829 0.4290790225914928 0  0.677091205130642 0.4070553655912463 0  0.6645967731787312 0.3863870506537688 0  0.6497021496342201 0.3673754683518409 0  0.632624531648159 0.3502978503657798 0  0.613612949346231 0.3354032268212686 0  0.5929446344087537 0.322908794869358 0  0.5709209774085071 0.3129967514629171 0  0.5478631328575114 0.3058116365147896 0  0.5241073360510646 0.3014582251803892 0  0.4999999999999999 0.3 0  0.4758926639489353 0.3014582251803892 0  0.4521368671424885 0.3058116365147896 0  0.4290790225914928 0.3129967514629171 0  0.4070553655912462 0.3229087948693581 0  0.3863870506537688 0.3354032268212687 0  0.367375468351841 0.3502978503657798 0  0.3502978503657798 0.367375468351841 0  0.3354032268212687 0.3863870506537689 0  0.322908794869358 0.4070553655912464 0  0.3129967514629171 0.4290790225914929 0  0.3058116365147896 0.4521368671424885 0  0.3014582251803892 0.4758926639489354 0  0.3 0.4999999999999999 0  0.3014582251803892 0.5241073360510646 0  0.3058116365147896 0.5478631328575115 0  0.3129967514629171 0.5709209774085071 0  0.3229087948693581 0.5929446344087538 0  0.3354032268212687 0.6136129493462312 0  0.3502978503657798 0.632624531648159 0  0.367375468351841 0.6497021496342202 0  0.3863870506537689 0.6645967731787313 0  0.4070553655912463 0.677091205130642 0  0.4290790225914929 0.6870032485370829 0  0.4521368671424885 0.6941883634852104 0  0.4758926639489354 0.6985417748196108 0  0.4999999999999999 0.7 0  0.5241073360510646 0.6985417748196108 0  0.5478631328575116 0.6941883634852104 0  0.5709209774085071 0.6870032485370829 0  0.5929446344087537 0.677091205130642 0  0.6136129493462312 0.6645967731787312 0  0.6326245316481591 0.6497021496342202 0  0.6497021496342202 0.632624531648159 0  0.6645967731787312 0.6136129493462312 0  0.677091205130642 0.5929446344087537 0  0.6870032485370829 0.5709209774085071 0  0.6941883634852104 0.5478631328575115 0  0 0.15 0  1 0.15 0  1 0.85 0  0 0.8500000000000001 0  0 0.075 0  1 0.075 0  1 0.925 0  0 0.925 0  0.5 0.8127595604293815 0  0.5069440078039168 0.190422209288238 0  0.25 0.3127595604293815 0  0.756944007803917 0.3095777907117619 0  0.756944007803917 0.6904222092882382 0  0.25 0.6872404395706185 0  0 0.225 0  0.4255768646051012 0.2241073097134061 0  1 0.7749999999999999 0  0.6773391559270888 0.2766774022734219 0  1 0.225 0  0.6755768646051011 0.7241073097134062 0  0 0.7750000000000001 0  0.5818971135297744 0.2287925518358889 0  0.8318971135297746 0.728792551835889 0  0.1659156081861886 0.7301636995921477 0  0.08376842746533225 0.2299656297760495 0  0.4236002201977974 0.7746535834185855 0  0.0840843918138115 0.7698363004078523 0  0.3340843918138113 0.7301636995921477 0  0.3340843918138114 0.2698363004078523 0  0.9159156081861887 0.2301636995921477 0  0.5840843918138116 0.7698363004078522 0  0.1659156081861887 0.2698363004078523 0  0.9162315725346678 0.7700343702239506 0  0.8340843918138114 0.2698363004078523 0  0.75 0.6146645247768686 0  0.5 0.1125158665330878 0  0.75 0.3874841334669124 0  0.2504983345544904 0.6122915843562002 0  0.2504983345544902 0.3877084156437999 0  0.5 0.8879783056303169 0  0.7005361650220154 0.3333055947145943 0  0.70416808765371 0.6599554817221275 0  0.449930214263529 0.1678187287522426 0  0.2247310981387008 0.7415600637745463 0  0.5155081196221678 0.7563797802146907 0  0.2752689018612993 0.2584399362254537 0  0.05605196690611226 0.8246131191226815 0  0.9439480330938878 0.1
[...]
<PointData  Scalars="Temperature"> 
<DataArray  type="Float64"  Name="Temperature"  format="ascii">3.1887068704006094e+01  3.3652763004465193e+01  3.3644991050140412e+01  3.3612276830188073e+01  3.3519217433711155e+01  3.3370390813975440e+01  3.3164946628263273e+01  3.2900834716219627e+01  3.2581181565830818e+01  3.2202942003166307e+01  3.1757785119052986e+01  3.1251297945003042e+01  3.0696773816032994e+01  3.0104289924952312e+01  2.9483850393791286e+01  2.8855176669340512e+01  2.8228278070108438e+01  2.7610961440560473e+01  2.7025101669493306e+01  2.6466890562556749e+01  2.5958213070629924e+01  2.5505844799950641e+01  2.5110399288186638e+01  2.4791371128979055e+01  2.4542612835265484e+01  2.4369047595214155e+01  2.4252048295017349e+01  2.4190745577065844e+01  2.4171050253673837e+01  2.3825376197400136e+01  2.3800451412542195e+01  2.3723819341505461e+01  2.3587461106578200e+01  2.3395342270454083e+01  2.3143600231579562e+01  2.2848559719322402e+01  2.2531782693300386e+01  2.2203272911778097e+01  2.1881295375016677e+01  2.1579929725750368e+01  2.1308012924111253e+01  2.1070890879728012e+01  2.0869644386076381e+01  2.0701649836547087e+01  2.0563346916063296e+01  2.0452933582358806e+01  2.0364800170946904e+01  2.0296666344360954e+01  2.0245407694789623e+01  2.0207596180334107e+01  2.0180610771106210e+01  2.0161735157475437e+01  2.0149126519027750e+01  2.0140890771347674e+01  2.0136112894726502e+01  2.0134507078584608e+01  2.0132477417969948e+01  2.0180116287889774e+01  2.0188836833218353e+01  2.0213491587177703e+01  2.0251893266633374e+01  2.0300488107880273e+01  2.0355483586293989e+01  2.0410879114870497e+01  2.0462874827399201e+01  2.0504878583293166e+01  2.0534334753976296e+01  2.0545668817913270e+01  2.0542113912290137e+01  2.0524647960318422e+01  2.0497415153428328e+01  2.0465221907722654e+01  2.0427986026815212e+01  2.0386755930951498e+01  2.0343289436103991e+01  2.0297316689274336e+01  2.0250926674998880e+01  2.0207602933188394e+01  2.0167500109896867e+01  2.0133403377367145e+01  2.0105757024921111e+01  2.0085533721715546e+01  2.0073128521218450e+01  2.0068706593918581e+01  2.0025391165227166e+01  2.0025724685501167e+01  2.0026686144017916e+01  2.0029397075696444e+01  2.0033813713827715e+01  2.0040207260389639e+01  2.0049261822049758e+01  2.0061728682822054e+01  2.0078497824828567e+01  2.0100699189191317e+01  2.0129641368470132e+01  2.0166259909283369e+01  2.0210445416365875e+01  2.0262820711672628e+01  2.0321653050295236e+01  2.0387568977365468e+01  2.0457383409074129e+01  2.0529913957951727e+01  2.0599453539811595e+01  2.0663524583298880e+01  2.0715338488699192e+01  2.0752953952132192e+01  2.0770035434360341e+01  2.0770852461831815e+01  2.0756186169219085e+01  2.0733160168083572e+01  2.0713866931348733e+01  2.0706018760818427e+01  2.0767411860133095e+01  2.0789921258478067e+01  2.0849864617609651e+01  2.0944565617739524e+01  2.1074140867919475e+01  2.1240980607205142e+01  2.1441573904932074e+01  2.1676112347863164e+01  2.1936477884714900e+01  2.2221355546586484e+01  2.2515379097473517e+01  2.2806153226654388e+01  2.3079664840191409e+01  2.3317492245439325e+01  2.3509405214463978e+01  2.3641689370254678e+01  2.3712483340719459e+01  2.3719638734565752e+01  2.3663603002772433e+01  2.3557596584075284e+01  2.3406861444445237e+01  2.3222849001737412e+01  2.3024227714795970e+01  2.2830372153826783e+01  2.2661281224742730e+01  2.2544969026824280e+01  2.2497197091178535e+01  2.2497865561654429e+01  2.4393108517300615e+01  2.4398694686426005e+01  2.4418254633396263e+01  2.4449924051070056e+01  2.4494392784945312e+01  2.4553419309383479e+01  2.4632832816692829e+01  2.4742530622528403e+01  2.4888546646735559e+01  2.5074218595054298e+01  2.5314521123237800e+01  2.5604926238574674e+01  2.5945366437386859e+01  2.6323113041164913e+01  2.6732743156923171e+01  2.7169671875046291e+01  2.7636442702267054e+01  2.8138594162668156e+01  2.8678823004367324e+01  2.9241397137071928e+01  2.9809555448881074e+01  3.0355563954122008e+01  3.0857563970187591e+01  3.1287256002702286e+01  3.1610251230898566e+01  3.1815865097847475e+01  2.0534372065975084e+01  2.0566537893101042e+01  2.0611756687542652e+01  2.0672111440181510e+01  2.0751673082506009e+01  2.0856853914575421e+01  2.0994678749502079e+01  2.1170614358324443e+01  2.1392863609541191e+01  2.1659134221262988e+01  2.1975186606605774e+01  2.2342909838761393e+01  2.2757125890331206e+01  2.3214752103053932e+01  2.3706290052949608e+01  2.4222361431693376e+01  2.4744234101999051e+01  2.5260543847746948e+01  2.5739923066394166e+01  2.6174057228165729e+01  2.6524920598751425e+01  2.6784093078054457e+01  2.6927069907801204e+01  2.6959420310764280e+01  2.6867337120703834e+01  2.6676004897897180e+01  2.6395778799072200e+01  2.6053290592812104e+01  2.5673166752475133e+01  2.5270693310002681e+01  2.4861315419870696e+01  2.4438687846138073e+01  2.4020852352756219e+01  2.3608635199769630e+01  2.3207929919389905e+01  2.2829291438465336e+01  2.2471672583751371e+01  2.2148345310130047e+01  2.1856581230467462e+01  2.1601920763151188e+01  2.1379852044665704e+01  2.1190410729537398e+01  2.1029436841100072e+01  2.0897019281273600e+01  2.0786593077535539e+01  2.0696589458720563e+01  2.0625472987954328e+01  2.0571784107883669e+01  2.0534531953306701e+01  2.0513345790992290e+01  2.0506769984657673e+01  2.0514369092880550e+01  3.2913117986228002e+01  2.0158539586797090e+01  2.0044461901793792e+01  2.3379833581018683e+01  3.3440302883620213e+01  2.0140958160184212e+01  2.0031161123074270e+01  2.2786769137226756e+01  2.1141470905923264e+01  2.3729738739818107e+01  2.8295527532482016e+01  2.0750750028306616e+01  2.0349921993317821e+01  2.3964448799126867e+01  3.2279799727120739e+01  2.5117429882483307e+01  2.0059285384867017e+01  2.1329836561615238e+01  2.0172013239317128e+01  2.0535162921782192e+01  2.4022949399294422e+01  2.2528283530679957e+01  2.0193841391435747e+01  2.4113978449988679e+01  3.1792240586611570e+01  2.1786188932524006e+01  2.4026844179379786e+01  2.2862152970364182e+01  2.6910164614422225e+01  2.0242419821993447e+01  2.0832725648566345e+01  3.0220512547658270e+01  2.0088339384323053e+01  2.0450794104057895e+01  2.0416181265027223e+01  2.3938657001923769e+01  2.0684667379973078e+01  2.4725657666771976e+01  2.7592219639772129e+01  2.0923231219915010e+01  2.1014407130507401e+01  2.0480738380028722e+01  2.4635576719140246e+01  2.3722092730831800e+01  2.1198328080116713e+01  2.8139405945743615e+01  2.3610789191206788e+01  2.0190174159557202e+01  3.2527398346911816e+01  2.0058538564934835e+01  2.4030400845293865e+01  2.0380261419993385e+01  2.0939581394036392e+01  2.1386423099699758e+01  2.4417812792219834e+01  2.9195872425208780e+01  2.3562666759873672e+01  2.7235983512290098e+01  2.0864855541433510e+01  2.3981495957423896e+01  2.0606105385942371e+01  2.0478056272864958e+01  2.6944959444834012e+01  2.5555165979601270e+01  2.0734629643900419e+01  2.0792211580450100e+01  2.9221096050074706e+01  2.3343184703600819e+01  2.2993912554140898e+01  2.0313890483857179e+01  2.0521819038069143e+01  2.1823239707427668e+01  2.5821836136598847e+01  2.6351473538849831e+01  2.0629518978517908e+01  2.0747396803375729e+01  2.1799377027808841e+01  2.0274552877181460e+01  2.0644281396875233e+01  2.0538395896487980e+01  2.3996368987203695e+01  2.6267224961820833e+01  2.2259628570205930e+01  2.2396089525343555e+01  2.3232094306312383e+01  2.0133072548976454e+01  2.0131870681949039e+01  2.1435303483988491e+01  3.1173424270465990e+01  2.4223816741120991e+01  2.0286521806625274e+01  2.3920940410202807e+01  3.0948516093794794e+01  2.4286347199612429e+01  2.0193896807667475e+01  2.0350554323754412e+01  2.0074509548377033e+01  3.1892049809066805e+01  2.0165469713157854e+01  2.0043373674645657e+01  3.3025182175237440e+01  2.3240927632893769e+01  2.0575938658601213e+01  2.0262078458252844e+01  2.3408794596724732e+01  2.0440896524875697e+01  2.0741073702534177e+01  2.3022216773256922e+01  3.0073943542060132e+01  2.0247750564916768e+01  2.6580252896484414e+01  2.4444983304417661e+01  2.3724481606761941e+01  3.2038026712869559e+01  2.0085994812449247e+01  2.4734075484830647e+01  2.8383949660568380e+01  2.0940952476946389e+01  2.0201083475034356e+01  2.7629053534911538e+01  2.4144528370376719e+01  2.1271364205814738e+01  2.1395657776792710e+01  2.1793923247551991e+01  2.4766149328281504e+01  2.0618930812694792e+01  2.5538839666907535e+01  2.0499193831385547e+01  2.1128659016182191e+01  2.1753911475583322e+01  2.2524920144248249e+01  2.1004523260621507e+01  2.0206702590129609e+01  2.2260254640722128e+01  2.3791783415782771e+01  2.7230481513398605e+01  2.2876380705564330e+01  3.0059481500599571e+01  2.0404730150371506e+01  2.0928114959494298e+01  2.4353110752442802e+01  3.2252201607787434e+01  2.0483089243245161e+01  2.0192564413561797e+01  2.3930964722524106e+01  2.1021950421884803e+01  2.3707276685536169e+01  2.0166093029135865e+01  2.0579858558997820e+01  2.0057583176424888e+01  2.4438729817229412e+01  2.0784069300752016e+01  2.0859653357483499e+01  2.4051014693794446e+01  3.2597777870422803e+01  2.0414539002002538e+01  2.0480063411486665e+01  2.0379076479251779e+01  2.5220773891946529e+01  2.7759942424806123e+01  2.4251193424141555e+01  2.7156100548081170e+01  2.4324911700609707e+01  2.4200311790054503e+01  2.3733127023439568e+01  2.0587955868488486e+01  2.0724973591417097e+01  2.0817829733866880e+01  2.0799649818906072e+01  2.0951911782179380e+01  2.0052049580893165e+01  2.4279542164314719e+01  2.0037354185289569e+01  2.0176244664481342e+01  3.2010369479439618e+01  2.0134703401499852e+01  3.3597678579770133e+01  2.0149582158245945e+01  2.0150019969957075e+01  3.3202836513642019e+01  2.0026925727551308e+01  2.2579841417180326e+01  2.0065637015056350e+01  2.3065226751327156e+01  2.2943264895257592e+01  2.7070454105152987e+01  2.4992810435911235e+01  2.4050364928747634e+01  2.7521500179099338e+01  2.1151770036990072e+01  2.0098676954447971e+01  2.3278941558659184e+01  2.9111171883097576e+01  2.0304455008662742e+01  2.0353786202732191e+01  2.1456425237652031e+01  2.0064107719154705e+01  2.0998094666675442e+01  2.3456111274739143e+01  2.4377165740680699e+01  2.8199559789082596e+01  3.0907403985546718e+01  2.2157851284798120e+01  2.3461970864182430e+01  2.0748572665497619e+01  2.0656818506684004e+01  2.1112788242554526e+01  2.0525771677923242e+01  2.0564341536667850e+01  2.0035300423158439e+01  3.3299901800205568e+01  3.1530379055761227e+01  2.0253162002103746e+01  2.3587151516142224e+01  2.8991925612696264e+01  2.0351664720298857e+01  2.2961686732171785e+01  2.0458897340278362e+01  2.0232292244973824e+01  2.1041986822332063e+01  2.5719917708391264e+01  2.0634887034046198e+01  2.2025369741387781e+01  3.3517907011973698e+01  2.0141079867651264e+01  2.0029268472329168e+01  2.2681010779208748e+01  2.2080266371988809e+01  2.0489459037548674e+01  2.4566133916753241e+01  2.3404000139590035e+01  2.3545568278674441e+01  2.0191381859511388e+01  2.0168087662569835e+01  2.2502510321771883e+01  3.2457261108861097e+01  3.2176016176364541e+01  3.2720847533261562e+01  2.5118227364279257e+01  2.4856335063966966e+01  3.1525007989154805e+01  2.1339007251005377e+01  2.4452395523857110e+01  2.3764984852180035e+01  2.0311820778160545e+01  2.1187168203645747e+01  2.0770828794810253e+01  2.6118571376088099e+01  2.0718114734399730e+01  2.0049648589760981e+01  2.0521923840980211e+01  2.0416770883169502e+01  2.2611740710552382e+01  2.0738365747545117e+01  2.0450054527363292e+01  2.4093140417590241e+01  2.3893003821180589e+01  2.0547856731152802e+01  2.0623720363852577e+01  2.6522886314872061e+01  2.6902310461107252e+01  2.1128814199616958e+01  2.0157340337543530e+01  2.0801170029018309e+01  2.1736593833983967e+01  2.7505990753877679e+01  2.2659090253490429e+01  2.9614948431207495e+01  2.3243396205171869e+01  2.3506317650160629e+01  2.3980864384190497e+01  2.7947605883715582e+01  2.8527838711105261e+01  2.3753275375123849e+01  2.0844505590753883e+01  2.0797440405877879e+01  2.7736322920322614e+01  2.4271380541495592e+01  2.7004301806968044e+01  2.9479212229129153e+01  2.3431677120437488e+01  2.4688360303720934e+01  2.0986550738400762e+01  2.0524922417200706e+01  2.0493227583711917e+01  2.5909408900676006e+01  2.5974544376191997e+01  3.0661838557556916e+01  2.0458816545807238e+01  2.0412063232818653e+01  2.0370834386195337e+01  2.5294180450274553e+01  2.0559387767508863e+01  2.1188041261931502e+01  2.5320057262553576e+01  2.1330878687977059e+01  2.1552961444374297e+01  2.0891000292314970e+01  2.3977714911514386e+01  2.3883795731047229e+01  2.1051424214432821e+01  2.1504389784035020e+01  2.0070898351202871e+01  3.1510136151223222e+01  2.0505124968202182e+01  2.3032818941838737e+01  2.0146093894958621e+01  2.0111892401576789e+01  2.0620829024864062e+01  2.0481740059110820e+01  2.0398267881633000e+01  2.3796740872989702e+01  2.6032217659324722e+01  2.6406992258349128e+01  2.0652525760217664e+01  2.0719649112660981e+01  2.2192679916321211e+01  2.2613236260011412e+01  2.3732988912962522e+01  2.2169362227856485e+01  2.0296026033190714e+01  2.0448639020257925e+01  2.0218744722424802e+01  2.3803798921559242e+01  2.2979909949537106e+01  2.0025547906805588e+01  2.0133431399744513e+01  3.3649563414980953e+01  2.2497060939663694e+01  2.4160375257406688e+01  2.2135271657032057e+01  2.6449651088684615e+01  2.1568865306940481e+01  2.0569542890916573e+01  2.0346705761169552e+01  2.3796430437688095e+01  2.4169385563037064e+01  2.7301467734128938e+01  2.0597404459930939e+01  2.0167245022755608e+01  2.0145781412609384e+01  2.0113173319484950e+01  2.0169536005978348e+01  2.0839758148819083e+01  2.6775580237209621e+01  2.5026876223665042e+01  2.0748998816099768e+01  2.0713741351145824e+01  2.0855035003766190e+01  2.0717964968130893e+01  2.0441760065723024e+01  2.5631228192129029e+01  2.5354576174941858e+01  3.0494903807733387e+01  2.7008323100790538e+01  2.2062924331508636e+01  3.1372629974858302e+01  2.4232108454636816e+01  2.2576469935310666e+01  2.0649002895507945e+01  3.2136739948112513e+01  2.4794672951376338e+01  2.0303881215428927e+01  2.0326160652639718e+01  2.0067873082856366e+01  2.3910298578748201e+01  2.9787099051521611e+01  2.3095742589305427e+01  2.3957518141254727e+01  2.4110660929340515e+01  2.4042867882117701e+01  2.6487174548424456e+01  2.0576288016293173e+01  3.2758097663514810e+01  2.0102713938018205e+01  2.7300607606742812e+01  2.1662822896562464e+01  2.3867485204190224e+01  2.0174217476567449e+01  2.0365946358666008e+01  2.1252605406869360e+01  2.6741160025952997e+01  2.0755789285449847e+01  2.8926583910046922e+01  2.0565587658416113e+01  2.0064359959687653e+01  2.4407614687502861e+01  2.1589722315610022e+01  2.6787966240740740e+01  2.0274368794992174e+01  2.3963674298896866e+01  2.0136101911160456e+01  2.2555296557684994e+01  3.3611040050001414e+01  2.0026637020450078e+01  2.3500564957373090e+01  2.0678527083696480e+01  2.0123084175876556e+01  2.0411140848387305e+01  2.4288751762867932e+01  2.1447976257766179e+01  2.0231775049279406e+01  2.0820145823630654e+01  3.1711959724908265e+01  2.4549963198741032e+01  2.4192709545124970e+01  2.3819429538855619e+01  2.0542312518039434e+01  2.2340996867753645e+01  2.2720236629655467e+01  2.4360601062860201e+01  2.0198404256520526e+01  2.4071501160985193e+01  2.0560362552706092e+01  2.3360130501640619e+01  2.8506695263775200e+01  2.4663741047393071e+01  2.0247296123500551e+01  2.8707697152230438e+01  2.1289763018137958e+01  2.0225596070064078e+01  2.0323521435498641e+01  2.0315937864240194e+01  2.0883877452531880e+01  2.0877622712296763e+01  2.0075772952530698e+01  2.3654220562139844e+01  2.9693493870092539e+01  2.2974168064207770e+01  2.1041227022532297e+01  2.0503425589670552e+01  2.4598457842650721e+01  2.3866620644056933e+01  2.0056482911918831e+01  2.7988301211365737e+01  2.3819255633969039e+01  2.3879952956177057e+01  2.0756825256210700e+01  2.4115879234307620e+01  2.3423826061452932e+01  3.0392460895948258e+01  2.0224189282039546e+01  2.3585877037998134e+01  2.4178150915316461e+01  2.0211116354113773e+01  2.0174540278209044e+01  2.0180142086263380e+01  2.0071525828933773e+01  3.2495049674562281e+01  2.2025301087177613e+01  2.8215591386890569e+01  2.0849075697146166e+01  2.3620387536806724e+01  2.2855509059480305e+01  2.1858716742858373e+01  2.4449696139189577e+01  2.7292686677165484e+01  2.8751275757648404e+01  2.0332316606069657e+01  2.3086389006968481e+01  2.0167924265083123e+01  2.0187237273930982e+01  2.4499160019689530e+01  2.1659020222440876e+01  3.1107430937893138e+01  2.0272822162880900e+01  3.0620753533499386e+01  3.1040330524749372e+01  2.0083885961617682e+01  2.0070411567034341e+01  3.1899512785443303e+01  3.1998141364543883e+01  2.6009789155673715e+01  2.1588108499766783e+01  2.0697993323547081e+01  2.0616054072680168e+01  2.1649052651104881e+01  2.1323496338882066e+01  2.0792732670576513e+01  2.0051283242078707e+01  2.0857738222592843e+01  2.2008877384391202e+01  2.7284528146728839e+01  2.6653487588255345e+01  2.0551249694364298e+01  2.0575726684487996e+01  2.0778860682104472e+01  2.1546723703077635e+01  2.0427493693405744e+01  2.7037209912504508e+01  2.4413190731841038e+01  2.3747323300369629e+01  2.4898468320778463e+01  2.4650438427069933e+01  2.8008278994951549e+01  2.0040801637071276e+01  3.3062872466152669e+01  3.2929942063936295e+01  3.2935662234931250e+01  2.0049565837827277e+01  2.0039999661543735e+01  2.0186562792140442e+01  2.3629978951232186e+01  2.0255042291031923e+01  2.5231178431170353e+01  2.0369894008097692e+01  2.0177073491158328e+01  2.0161631549938047e+01  2.3435170117887694e+01  2.3220239615280644e+01  2.3338400109991767e+01  2.0755507223722802e+01  3.3161643073568406e+01  2.3103809825842877e+01  2.0153860074533011e+01  2.0097706885780784e+01  2.3229867516043484e+01  2.1066850879495206e+01  2.2789760414836632e+01  2.7798819083071098e+01  2.4441573272721435e+01  2.0178564732429997e+01  2.4361195110793673e+01  2.0514499880064015e+01  2.0285238004843890e+01  2.0303188253700426e+01  2.0217533338557466e+01  2.9491804495685692e+01  2.1058256285140150e+01  3.1906988675179282e+01  2.0240213892369052e+01  2.3673787142715657e+01  2.0271435642369422e+01  2.4948310959410946e+01  2.3244760433072880e+01  2.0043596504729990e+01  2.1233450313966994e+01  3.1739786943975140e+01  2.0350612554971580e+01  2.0132884004096347e+01  2.0645358714493160e+01  2.6771014911842222e+01  2.3134549102759102e+01  2.0516237634789945e+01  2.1286559982278309e+01  2.0938828063068236e+01  2.0790931385378801e+01  2.9672861764516544e+01  2.6223771762985749e+01  2.2675467780191635e+01  2.0910315528408528e+01  2.0397395258193875e+01  2.0683472453393097e+01  2.0940983747759990e+01  2.0962338918976506e+01  2.3712902600008089e+01  2.4531677571714685e+01  2.2944767418036232e+01  2.0182626064335420e+01  2.4325503956426701e+01  2.0265623829106836e+01  2.8004443578503619e+01  2.4120668507009942e+01  2.4204649269127703e+01  2.4114496696909182e+01  2.4566239834392711e+01  2.0500672418620024e+01  2.1931331506847638e+01  2.0475369884214885e+01  2.0475569672124127e+01  2.0414712590165301e+01  2.1172296494411274e+01  2.0079387897101881e+01  2.0214892383200414e+01  2.1436953500946981e+01  3.1917615887860762e+01  3.2308744933257053e+01  3.0524840493972761e+01  2.1231480810624962e+01  2.3258735406110006e+01  2.2986801393242764e+01  2.0534186408271989e+01  2.0701740434696060e+01  2.9921381389395734e+01  2.6410265312751374e+01  2.0088152782520787e+01  2.4388778650878940e+01  2.4937194434400180e+01  2.0391302806380274e+01  2.9394896939892629e+01  2.0665209499062826e+01  2.5248115780723442e+01  2.0583599996370253e+01  2.5479568929137407e+01  2.1740467024966833e+01  2.1866852360178864e+01  2.0797713751748937e+01  2.7286837401346734e+01  2.0951506306927886e+01  2.0494671959805370e+01  2.0828248981979343e+01  2.0756327723891285e+01  2.6912118953017021e+01  2.0988369531218776e+01  2.1305977222611897e+01  2.5850644273731884e+01  2.1459808560525026e+01  2.0510167588979524e+01  2.4882034434882616e+01  2.0038665580635559e+01  3.3118759710357459e+01  2.462