<?xml version="1.0"?>
<VTKFile type="UnstructuredGrid"  version="0.1"  >
<UnstructuredGrid>
<Piece  NumberOfPoints="2331" NumberOfCells="4248">
<Points>
<DataArray  type="Float64"  NumberOfComponents="3"  format="ascii">0 0.3 0  0 0 0  0.04999999999999999 0 0  0.0514582251803892 0.02410733605106462 0  0.0558116365147896 0.04786313285751154 0  0.06299675146291706 0.07092097740850717 0  0.07290879486935808 0.09294463440875382 0  0.08540322682126872 0.1136129493462312 0  0.1002978503657798 0.132624531648159 0  0.117375468351841 0.1497021496342203 0  0.1363870506537689 0.1645967731787313 0  0.1570553655912463 0.177091205130642 0  0.1790790225914929 0.187003248537083 0  0.2021368671424885 0.1941883634852104 0  0.2258926639489354 0.1985417748196108 0  0.25 0.2 0  0.2741073360510646 0.1985417748196108 0  0.2978631328575116 0.1941883634852104 0  0.3209209774085071 0.187003248537083 0  0.3429446344087537 0.177091205130642 0  0.3636129493462312 0.1645967731787313 0  0.3826245316481591 0.1497021496342202 0  0.3997021496342202 0.132624531648159 0  0.4145967731787313 0.1136129493462312 0  0.427091205130642 0.09294463440875371 0  0.4370032485370829 0.07092097740850713 0  0.4441883634852104 0.04786313285751155 0  0.4485417748196108 0.02410733605106461 0  0.45 0 0  0.55 0 0  0.5514582251803892 0.02410733605106462 0  0.5558116365147896 0.04786313285751154 0  0.5629967514629171 0.07092097740850717 0  0.5729087948693581 0.09294463440875382 0  0.5854032268212688 0.1136129493462312 0  0.6002978503657798 0.132624531648159 0  0.617375468351841 0.1497021496342203 0  0.6363870506537689 0.1645967731787313 0  0.6570553655912463 0.177091205130642 0  0.6790790225914929 0.187003248537083 0  0.7021368671424885 0.1941883634852104 0  0.7258926639489354 0.1985417748196108 0  0.75 0.2 0  0.7741073360510646 0.1985417748196108 0  0.7978631328575116 0.1941883634852104 0  0.8209209774085071 0.187003248537083 0  0.8429446344087537 0.177091205130642 0  0.8636129493462312 0.1645967731787313 0  0.8826245316481591 0.1497021496342202 0  0.8997021496342202 0.132624531648159 0  0.9145967731787312 0.1136129493462312 0  0.927091205130642 0.09294463440875371 0  0.9370032485370829 0.07092097740850713 0  0.9441883634852104 0.04786313285751155 0  0.9485417748196108 0.02410733605106461 0  0.95 0 0  1 0 0  1 0.3 0  0.9758926639489353 0.3014582251803892 0  0.9521368671424885 0.3058116365147896 0  0.9290790225914928 0.3129967514629171 0  0.9070553655912461 0.3229087948693581 0  0.8863870506537688 0.3354032268212687 0  0.867375468351841 0.3502978503657798 0  0.8502978503657798 0.367375468351841 0  0.8354032268212687 0.3863870506537689 0  0.822908794869358 0.4070553655912464 0  0.8129967514629171 0.4290790225914929 0  0.8058116365147896 0.4521368671424885 0  0.8014582251803892 0.4758926639489354 0  0.8 0.4999999999999999 0  0.8014582251803892 0.5241073360510646 0  0.8058116365147896 0.5478631328575115 0  0.8129967514629171 0.5709209774085071 0  0.8229087948693581 0.5929446344087538 0  0.8354032268212688 0.6136129493462312 0  0.8502978503657798 0.632624531648159 0  0.867375468351841 0.6497021496342202 0  0.8863870506537689 0.6645967731787313 0  0.9070553655912463 0.677091205130642 0  0.9290790225914929 0.6870032485370829 0  0.9521368671424885 0.6941883634852104 0  0.9758926639489354 0.6985417748196108 0  1 0.7 0  1 1 0  0.95 1 0  0.9485417748196108 0.9758926639489353 0  0.9441883634852104 0.9521368671424885 0  0.9370032485370829 0.9290790225914928 0  0.927091205130642 0.9070553655912463 0  0.9145967731787312 0.8863870506537688 0  0.8997021496342201 0.8673754683518409 0  0.882624531648159 0.8502978503657798 0  0.863612949346231 0.8354032268212686 0  0.8429446344087537 0.822908794869358 0  0.8209209774085071 0.8129967514629171 0  0.7978631328575114 0.8058116365147896 0  0.7741073360510646 0.8014582251803892 0  0.75 0.8 0  0.7258926639489353 0.8014582251803892 0  0.7021368671424885 0.8058116365147896 0  0.6790790225914928 0.8129967514629171 0  0.6570553655912461 0.8229087948693581 0  0.6363870506537688 0.8354032268212688 0  0.617375468351841 0.8502978503657798 0  0.6002978503657798 0.867375468351841 0  0.5854032268212687 0.8863870506537689 0  0.572908794869358 0.9070553655912463 0  0.5629967514629171 0.9290790225914929 0  0.5558116365147896 0.9521368671424885 0  0.5514582251803892 0.9758926639489355 0  0.55 0.9999999999999999 0  0.45 0.9999999999999999 0  0.4485417748196108 0.9758926639489353 0  0.4441883634852104 0.9521368671424885 0  0.4370032485370829 0.9290790225914928 0  0.427091205130642 0.9070553655912463 0  0.4145967731787313 0.8863870506537688 0  0.3997021496342201 0.8673754683518409 0  0.382624531648159 0.8502978503657798 0  0.363612949346231 0.8354032268212686 0  0.3429446344087536 0.822908794869358 0  0.3209209774085071 0.8129967514629171 0  0.2978631328575115 0.8058116365147896 0  0.2741073360510646 0.8014582251803892 0  0.25 0.8 0  0.2258926639489353 0.8014582251803892 0  0.2021368671424885 0.8058116365147896 0  0.1790790225914928 0.8129967514629171 0  0.1570553655912462 0.8229087948693581 0  0.1363870506537688 0.8354032268212688 0  0.117375468351841 0.8502978503657798 0  0.1002978503657797 0.867375468351841 0  0.08540322682126869 0.8863870506537689 0  0.07290879486935797 0.9070553655912463 0  0.06299675146291703 0.9290790225914929 0  0.05581163651478957 0.9521368671424885 0  0.0514582251803892 0.9758926639489355 0  0.04999999999999999 0.9999999999999999 0  0 1 0  -0 0.7000000000000001 0  0.0241073360510646 0.6985417748196108 0  0.04786313285751161 0.6941883634852104 0  0.07092097740850711 0.6870032485370829 0  0.09294463440875372 0.677091205130642 0  0.1136129493462312 0.6645967731787312 0  0.1326245316481591 0.6497021496342202 0  0.1497021496342202 0.632624531648159 0  0.1645967731787313 0.6136129493462312 0  0.177091205130642 0.5929446344087537 0  0.187003248537083 0.5709209774085071 0  0.1941883634852104 0.5478631328575115 0  0.1985417748196108 0.5241073360510646 0  0.2 0.5 0  0.1985417748196108 0.4758926639489353 0  0.1941883634852104 0.4521368671424885 0  0.1870032485370829 0.4290790225914928 0  0.177091205130642 0.4070553655912463 0  0.1645967731787313 0.3863870506537688 0  0.1497021496342202 0.3673754683518409 0  0.132624531648159 0.3502978503657798 0  0.113612949346231 0.3354032268212686 0  0.09294463440875361 0.322908794869358 0  0.07092097740850711 0.3129967514629171 0  0.04786313285751148 0.3058116365147896 0  0.02410733605106464 0.3014582251803892 0  0.6985417748196108 0.5241073360510646 0  0.7 0.5 0  0.6985417748196108 0.4758926639489353 0  0.6941883634852104 0.4521368671424885 0  0.6870032485370829 0.4290790225914928 0  0.677091205130642 0.4070553655912463 0  0.6645967731787312 0.3863870506537688 0  0.6497021496342201 0.3673754683518409 0  0.632624531648159 0.3502978503657798 0  0.613612949346231 0.3354032268212686 0  0.5929446344087537 0.322908794869358 0  0.5709209774085071 0.3129967514629171 0  0.5478631328575114 0.3058116365147896 0  0.5241073360510646 0.3014582251803892 0  0.4999999999999999 0.3 0  0.4758926639489353 0.3014582251803892 0  0.4521368671424885 0.3058116365147896 0  0.4290790225914928 0.3129967514629171 0  0.4070553655912462 0.3229087948693581 0  0.3863870506537688 0.3354032268212687 0  0.367375468351841 0.3502978503657798 0  0.3502978503657798 0.367375468351841 0  0.3354032268212687 0.3863870506537689 0  0.322908794869358 0.4070553655912464 0  0.3129967514629171 0.4290790225914929 0  0.3058116365147896 0.4521368671424885 0  0.3014582251803892 0.4758926639489354 0  0.3 0.4999999999999999 0  0.3014582251803892 0.5241073360510646 0  0.3058116365147896 0.5478631328575115 0  0.3129967514629171 0.5709209774085071 0  0.3229087948693581 0.5929446344087538 0  0.3354032268212687 0.6136129493462312 0  0.3502978503657798 0.632624531648159 0  0.367375468351841 0.6497021496342202 0  0.3863870506537689 0.6645967731787313 0  0.4070553655912463 0.677091205130642 0  0.4290790225914929 0.6870032485370829 0  0.4521368671424885 0.6941883634852104 0  0.4758926639489354 0.6985417748196108 0  0.4999999999999999 0.7 0  0.5241073360510646 0.6985417748196108 0  0.5478631328575116 0.6941883634852104 0  0.5709209774085071 0.6870032485370829 0  0.5929446344087537 0.677091205130642 0  0.6136129493462312 0.6645967731787312 0  0.6326245316481591 0.6497021496342202 0  0.6497021496342202 0.632624531648159 0  0.6645967731787312 0.6136129493462312 0  0.677091205130642 0.5929446344087537 0  0.6870032485370829 0.5709209774085071 0  0.6941883634852104 0.5478631328575115 0  0 0.15 0  1 0.15 0  1 0.85 0  0 0.8500000000000001 0  0 0.075 0  1 0.075 0  1 0.925 0  0 0.925 0  0.5 0.8127595604293815 0  0.5069440078039168 0.190422209288238 0  0.25 0.3127595604293815 0  0.756944007803917 0.3095777907117619 0  0.756944007803917 0.6904222092882382 0  0.25 0.6872404395706185 0  0 0.225 0  0.4255768646051012 0.2241073097134061 0  1 0.7749999999999999 0  0.6773391559270888 0.2766774022734219 0  1 0.225 0  0.6755768646051011 0.7241073097134062 0  0 0.7750000000000001 0  0.5818971135297744 0.2287925518358889 0  0.8318971135297746 0.728792551835889 0  0.1659156081861886 0.7301636995921477 0  0.08376842746533225 0.2299656297760495 0  0.4236002201977974 0.7746535834185855 0  0.0840843918138115 0.7698363004078523 0  0.3340843918138113 0.7301636995921477 0  0.3340843918138114 0.2698363004078523 0  0.9159156081861887 0.2301636995921477 0  0.5840843918138116 0.7698363004078522 0  0.1659156081861887 0.2698363004078523 0  0.9162315725346678 0.7700343702239506 0  0.8340843918138114 0.2698363004078523 0  0.75 0.6146645247768686 0  0.5 0.1125158665330878 0  0.75 0.3874841334669124 0  0.2504983345544904 0.6122915843562002 0  0.2504983345544902 0.3877084156437999 0  0.5 0.8879783056303169 0  0.7005361650220154 0.3333055947145943 0  0.70416808765371 0.6599554817221275 0  0.449930214263529 0.1678187287522426 0  0.2247310981387008 0.7415600637745463 0  0.5155081196221678 0.7563797802146907 0  0.2752689018612993 0.2584399362254537 0  0.05605196690611226 0.8246131191226815 0  0.9439480330938878 0.1
[...]
<PointData  Scalars="Temperature"> 
<DataArray  type="Float64"  Name="Temperature"  format="ascii">7.2767262449372225e+01  7.3346304802044344e+01  7.3345353787561379e+01  7.3332240672510451e+01  7.3295563278099806e+01  7.3238497510416337e+01  7.3162111839933274e+01  7.3067148391088566e+01  7.2954489937862633e+01  7.2822483172525551e+01  7.2667464403161276e+01  7.2491346794667379e+01  7.2299517870166369e+01  7.2096538835064649e+01  7.1887067761370758e+01  7.1676650487201798e+01  7.1465762860921856e+01  7.1253208972381358e+01  7.1042514038017714e+01  7.0831783299524972e+01  7.0631162301311747e+01  7.0447764826724423e+01  7.0289379070927936e+01  7.0167066198023292e+01  7.0079986325071829e+01  7.0026955080211650e+01  6.9998452582197416e+01  6.9987217869604009e+01  6.9984523916285127e+01  6.9944224181784207e+01  6.9932508085071092e+01  6.9896186472214723e+01  6.9828286125677437e+01  6.9722946723895149e+01  6.9570947363478965e+01  6.9371716256645882e+01  6.9128491837019411e+01  6.8849396380146587e+01  6.8546939468056280e+01  6.8238931661937812e+01  6.7943510578219815e+01  6.7675839807217272e+01  6.7445296889352505e+01  6.7254585001053130e+01  6.7101114287572074e+01  6.6981680599479219e+01  6.6887557787944388e+01  6.6813831801750169e+01  6.6756026276657622e+01  6.6709657040195921e+01  6.6672523399695507e+01  6.6642325720990769e+01  6.6618532735000670e+01  6.6600899072932734e+01  6.6589588651985139e+01  6.6585553899904966e+01  6.6585222733043125e+01  6.6736910576781383e+01  6.6742506657512664e+01  6.6758132099079916e+01  6.6780111417754341e+01  6.6801669827197998e+01  6.6813442465336706e+01  6.6802977356441815e+01  6.6756977256976427e+01  6.6665397995421301e+01  6.6523453340917442e+01  6.6321271844389287e+01  6.6070116554107244e+01  6.5780918409810255e+01  6.5471876308314634e+01  6.5163639992910660e+01  6.4873698128340564e+01  6.4605235518709023e+01  6.4361683508983575e+01  6.4134300915366552e+01  6.3919915079002365e+01  6.3719287432628434e+01  6.3529718397645176e+01  6.3359784360889023e+01  6.3215646957868913e+01  6.3106379290718863e+01  6.3038921584141924e+01  6.3015257695676944e+01  6.2496167286843324e+01  6.2496961023604335e+01  6.2508651312125046e+01  6.2541434993100090e+01  6.2592438237895223e+01  6.2660870657963244e+01  6.2745816119527440e+01  6.2847231532519515e+01  6.2966456937419984e+01  6.3104059625025279e+01  6.3261252677433070e+01  6.3434877740950647e+01  6.3618142006394741e+01  6.3808868345063537e+01  6.3998546017355558e+01  6.4191245699189707e+01  6.4384825046337866e+01  6.4579174255437962e+01  6.4771349027948105e+01  6.4957553518423708e+01  6.5124998928825619e+01  6.5271140705572932e+01  6.5382874628932996e+01  6.5463489625466622e+01  6.5511635855270228e+01  6.5535928155490851e+01  6.5546206754440817e+01  6.5548512829516611e+01  6.5586004877656933e+01  6.5598010179885463e+01  6.5633356233905587e+01  6.5697210045035220e+01  6.5797051091911840e+01  6.5942161221629092e+01  6.6130944076898501e+01  6.6363008271024299e+01  6.6626922370734263e+01  6.6914277778386207e+01  6.7204842222743167e+01  6.7480997805687949e+01  6.7731869318389130e+01  6.7943002401338916e+01  6.8115257164240134e+01  6.8248098875351573e+01  6.8348726474676894e+01  6.8423651943879065e+01  6.8479827173342102e+01  6.8522492313838143e+01  6.8555238969158111e+01  6.8580581660504023e+01  6.8600903686457613e+01  6.8616577475903739e+01  6.8628265137168185e+01  6.8635405398831267e+01  6.8638096987551620e+01  6.8638182188446478e+01  6.8548231343822138e+01  6.8545052110228582e+01  6.8536785382678659e+01  6.8526822613222905e+01  6.8520921879886629e+01  6.8527882105958724e+01  6.8558719471989974e+01  6.8624941428889258e+01  6.8738594516826410e+01  6.8905019998936297e+01  6.9129360189677868e+01  6.9405588932562225e+01  6.9723044454630340e+01  7.0059715409139102e+01  7.0396210125836561e+01  7.0715125229711532e+01  7.1008370098918732e+01  7.1276074264022938e+01  7.1526243017163068e+01  7.1762533524950101e+01  7.1986691406128188e+01  7.2194695547835167e+01  7.2383057115715658e+01  7.2543572699502619e+01  7.2663886913600749e+01  7.2740484283705513e+01  6.5199308801116544e+01  6.5499584638095826e+01  6.5819714744216611e+01  6.6144423309405639e+01  6.6464562298768541e+01  6.6778586480480911e+01  6.7092517742560972e+01  6.7414027028833871e+01  6.7749053337325265e+01  6.8091405135280041e+01  6.8438700806917623e+01  6.8786751265865959e+01  6.9123484285047581e+01  6.9445485654724109e+01  6.9749880712735504e+01  7.0034459975396643e+01  7.0296416505325624e+01  7.0535310707903307e+01  7.0744644905368247e+01  7.0917861043653829e+01  7.1039726948112516e+01  7.1104002250760672e+01  7.1099160592855014e+01  7.1021613490416655e+01  7.0866006299789092e+01  7.0642305849237772e+01  7.0359000059010214e+01  7.0032688371178963e+01  6.9686746781278998e+01  6.9339249974381246e+01  6.9002710110396521e+01  6.8670863169029616e+01  6.8348416869177200e+01  6.8026334514524819e+01  6.7697753553418096e+01  6.7365291047820037e+01  6.7026409998863500e+01  6.6695628702648477e+01  6.6372942620910706e+01  6.6069050420496936e+01  6.5782337596971445e+01  6.5515629006891899e+01  6.5268657349717060e+01  6.5047381413673108e+01  6.4852096198259488e+01  6.4692509544207439e+01  6.4579296740733724e+01  6.4518767513188479e+01  6.4522068744223034e+01  6.4593927804185057e+01  6.4735334688498568e+01  6.4940910503334678e+01  7.3067392254788842e+01  6.6667626703249610e+01  6.2744986223029947e+01  6.8585295325426088e+01  7.3260956851409020e+01  6.6611311627202525e+01  6.2572389374919446e+01  6.8621415012913914e+01  6.5703059477420496e+01  6.9775333914298130e+01  7.1515415112916244e+01  6.7125772634800626e+01  6.4103675630980717e+01  6.8261632607865820e+01  7.2870191543461786e+01  7.0382659442120399e+01  6.2921723159268716e+01  6.7848437545750002e+01  6.6716472566086395e+01  6.4471909307828014e+01  6.8557198905044629e+01  6.9028488586776049e+01  6.3591881778731832e+01  6.8405792301021748e+01  7.2693958094037015e+01  6.6397113801334029e+01  6.8517794779359292e+01  6.7449956352852169e+01  7.1093946448032668e+01  6.6773909161271320e+01  6.5112596073673501e+01  7.2143775504543271e+01  6.3080043464945355e+01  6.6939825299931641e+01  6.4447761031426722e+01  6.9902263008936671e+01  6.6657291699534895e+01  6.8780491701657354e+01  7.1162680273412306e+01  6.5628370475216698e+01  6.7311155771428773e+01  6.4387728935079465e+01  7.0142588491832967e+01  6.8176968195078288e+01  6.5620492127343368e+01  7.1467525235115531e+01  6.8558157669897867e+01  6.6708401547541285e+01  7.2936613883511228e+01  6.2873778350122059e+01  6.9919919741186831e+01  6.4149980264091639e+01  6.7471779931418595e+01  6.6035611418068100e+01  6.8489794442627613e+01  7.1777536241669935e+01  6.7987968195876562e+01  7.1225427004751168e+01  6.5352239206289539e+01  6.9947488472666990e+01  6.6121468761964437e+01  6.4989395869821962e+01  7.0693480913835373e+01  6.9478376614722706e+01  6.5566805639096671e+01  6.5584533175566619e+01  7.1810937013595066e+01  6.7872992184923163e+01  6.9412806339672201e+01  6.4108356239838088e+01  6.6884918155965863e+01  6.8436603718693235e+01  7.0720688904122355e+01  7.0839916744449880e+01  6.4739724342353583e+01  6.4850204870835910e+01  6.8315490275552051e+01  6.3860971788404761e+01  6.7159082596830615e+01  6.5551609622782053e+01  6.9964666577145749e+01  7.0116639925096322e+01  6.6914520989335145e+01  6.6987142171530465e+01  6.9487377465506029e+01  6.3300141620949681e+01  6.3331489472328592e+01  6.5977230550213207e+01  7.2488518627624373e+01  6.8543612641983827e+01  6.6806832646196725e+01  6.8442550318758933e+01  7.2390520696145416e+01  6.8493779729044292e+01  6.6740854071463360e+01  6.6872275658628055e+01  6.3030046991396581e+01  7.2749028146212851e+01  6.6662424735300519e+01  6.2709329186576873e+01  7.3108116463537485e+01  6.8588037564936400e+01  6.6730216500782532e+01  6.3866528048072290e+01  6.9683291652255093e+01  6.4282073751847989e+01  6.5082513545492731e+01  6.7551106159515825e+01  7.2090147437328000e+01  6.6767873720876921e+01  7.1036021703854971e+01  6.8498071484476085e+01  6.8516050775840654e+01  7.2767361436504800e+01  6.3032062404685057e+01  6.8691338485074851e+01  7.1445726208101732e+01  6.5551988105290150e+01  6.3663716448620157e+01  7.1290360328473739e+01  6.8390951731155070e+01  6.7869165009125027e+01  6.7819130371040302e+01  6.6460573947488825e+01  7.0281105598714703e+01  6.4583200311821429e+01  7.0495200459444789e+01  6.4455285544819546e+01  6.5821209644978879e+01  6.6293735828165396e+01  6.8967758411966670e+01  6.7445799000646886e+01  6.3614369623105368e+01  6.8868204451788628e+01  6.8294665623070244e+01  7.1146784583733790e+01  6.7512977335487463e+01  7.2085454537599830e+01  6.6853221989093782e+01  6.5155194471867873e+01  7.0052911087673579e+01  7.2853733509554985e+01  6.7004860614253602e+01  6.6728164290618565e+01  6.8548230078601350e+01  6.5476954206746214e+01  6.8569124232959041e+01  6.6694761921465968e+01  6.7028749801578272e+01  6.2832531302789604e+01  7.0057126757529261e+01  6.6992946827964758e+01  6.6913293653535135e+01  6.9924281637986425e+01  7.2964500041528936e+01  6.4641334986619995e+01  6.4601910389906763e+01  6.4243495178980183e+01  6.9117537984163391e+01  7.1129938726222832e+01  6.8504256804178539e+01  7.1125358371460862e+01  6.8525213653264984e+01  6.9987283822776305e+01  6.9863429096335622e+01  6.6383692226737011e+01  6.6512459501584644e+01  6.5466130209788162e+01  6.5548224881841833e+01  6.5690330725717573e+01  6.2838067178231732e+01  6.8550559755476058e+01  6.2653404904894188e+01  6.6730563393359503e+01  7.2797613747779877e+01  6.6592156225468685e+01  7.3323782305301222e+01  6.6638210574509003e+01  6.6628450913370685e+01  7.3170531374440529e+01  6.2516220945204275e+01  6.8633711156498137e+01  6.2986993784039576e+01  6.8604110366093465e+01  6.8610005284162781e+01  7.0924215154524916e+01  6.9056330134972029e+01  6.8321416146465850e+01  7.1297346918055808e+01  6.5791236994271117e+01  6.3167638231132280e+01  6.7875619561797734e+01  7.1768709420062535e+01  6.3943748742964189e+01  6.4339041174882425e+01  6.5919355771899745e+01  6.2944295002174528e+01  6.5340812087798284e+01  6.9605203024207938e+01  6.8505050748448284e+01  7.1441142981668804e+01  7.2383956587647575e+01  6.8690721383378232e+01  6.9670605135347202e+01  6.7223398061376059e+01  6.6916908021277408e+01  6.5436408837712747e+01  6.4434235025442106e+01  6.4497455320691188e+01  6.2619124649699067e+01  7.3208563438931677e+01  7.2594594425163351e+01  6.3898957191935608e+01  6.8016508307909419e+01  7.1730599945750441e+01  6.6862802759455477e+01  6.9349102528081630e+01  6.4435906151945971e+01  6.6769336879536240e+01  6.7239275167220228e+01  7.0607224029466025e+01  6.4648948800317996e+01  6.6614291611526696e+01  7.3292889908532857e+01  6.6606068070897109e+01  6.2544034259215721e+01  6.8627459922646921e+01  6.6761092698414501e+01  6.4827054271696412e+01  7.0164818458872560e+01  6.8565478599331641e+01  6.8573673427608966e+01  6.6695444994762681e+01  6.6686043125588910e+01  6.7174511566358106e+01  7.2910836939998887e+01  7.2820233034887337e+01  7.3002796484698109e+01  7.0310975180588557e+01  7.0248632018793558e+01  7.2623590549838866e+01  6.5934812498378136e+01  6.8508759146537386e+01  6.8461178173739455e+01  6.6833183474602734e+01  6.7606170613881062e+01  6.7320765299013914e+01  7.0714103293890446e+01  6.4749875635280162e+01  6.2785250726846080e+01  6.4478221460754014e+01  6.4259506137337951e+01  6.9171994531436809e+01  6.5553386987201208e+01  6.6819337476229890e+01  6.9974540197768945e+01  6.9945518345113271e+01  6.5836766943446307e+01  6.5987970062890014e+01  7.0412612165499652e+01  7.0565048960040784e+01  6.7659783922470112e+01  6.3470473444559865e+01  6.5601581147326712e+01  6.8389015409185646e+01  7.1267605913082619e+01  6.7218571908095015e+01  7.1934837105213063e+01  6.7755281335747981e+01  6.8076374156059913e+01  6.8321022591768269e+01  7.1383770627142724e+01  7.1594199395427694e+01  6.8152847565964379e+01  6.5226448117188184e+01  6.5345872762563545e+01  7.1356702830633225e+01  6.8434584149088977e+01  7.1151952179295023e+01  7.1864932069459030e+01  6.7884435124972669e+01  6.8617976622100286e+01  6.5521528794204826e+01  6.5264975320824249e+01  6.5316297762943989e+01  6.9861388116200061e+01  6.9799016055968892e+01  7.2306643466682573e+01  6.4333547865316731e+01  6.4246285095474221e+01  6.4128402363481825e+01  7.0531363740049656e+01  6.4629252003209572e+01  6.5682501970579736e+01  7.0502906215983117e+01  6.6014408003733010e+01  6.6174375675318799e+01  6.7225038302629230e+01  6.9899807142637826e+01  6.9843348906526160e+01  6.7637862003091385e+01  6.8095828128718281e+01  6.2967771904153601e+01  7.2582579929932351e+01  6.6753375583753851e+01  6.9477501378752677e+01  6.3348301459939051e+01  6.3177633225753198e+01  6.6990460826258115e+01  6.6922677480702617e+01  6.6922716923913057e+01  6.8371715378496702e+01  7.0842064682359407e+01  7.0947588888690305e+01  6.4879299564748223e+01  6.4951305070000330e+01  6.6758342212698480e+01  6.9133867008447822e+01  6.9811465162345073e+01  6.8748851065374424e+01  6.6820550814600608e+01  6.4650549736438663e+01  6.6746156907893919e+01  6.8537311128269607e+01  6.9306897583541883e+01  6.2496569035574623e+01  6.6585378373645113e+01  7.3345904845618080e+01  6.8638169260617275e+01  6.9964689662613537e+01  6.8615069718844325e+01  7.0918782998276853e+01  6.6246465802218140e+01  6.4577010023094758e+01  6.6840224153866615e+01  6.9908319275954199e+01  6.9983848253794747e+01  7.0956901837363475e+01  6.7131629965127303e+01  6.3496883126427818e+01  6.3380008294042661e+01  6.3219526751538190e+01  6.3471654062043896e+01  6.4972064796162215e+01  7.0966556707156329e+01  6.8905894523460034e+01  6.5570415626447229e+01  6.5554030484411328e+01  6.5607198549404870e+01  6.4867138809575451e+01  6.4890226476269206e+01  6.9469025900500682e+01  6.9376019748970918e+01  7.2241692866311780e+01  7.1153613084413948e+01  6.6691561088956504e+01  7.2549169909581167e+01  6.8408279549190070e+01  6.7213471469812845e+01  6.6415053514521588e+01  7.2826344005858772e+01  7.0178884575367249e+01  6.4133167623270239e+01  6.4084213108616211e+01  6.2923193324344481e+01  6.8244287323533612e+01  7.1996319759155980e+01  6.7665161492931190e+01  6.8394499523904500e+01  6.8455855674508712e+01  6.8485738206221384e+01  7.0230682231516226e+01  6.5658738307790728e+01  7.3014770242601600e+01  6.3144412886874392e+01  7.0861419524230215e+01  6.8121518044013357e+01  6.8560321999350364e+01  6.6705533291186086e+01  6.4289678702720011e+01  6.7575583893691274e+01  7.1097925064388320e+01  6.5200749485979216e+01  7.1656596512613746e+01  6.6124384712508686e+01  6.2966019313194366e+01  6.8515995751627912e+01  6.8134463089508046e+01  7.0689112916154443e+01  6.6799554139143609e+01  6.9926708210546195e+01  6.6592597925916394e+01  6.8634950243733883e+01  7.3330286169367795e+01  6.2510264586043753e+01  6.8011938702102199e+01  6.6809749195315490e+01  6.3301103925137340e+01  6.6924159699074806e+01  6.8468499962840369e+01  6.8087107253604685e+01  6.6769465823685621e+01  6.5017630969884905e+01  7.2678130119827188e+01  6.8537558068707128e+01  6.8509639692155858e+01  6.8187970734719997e+01  6.7035639022710583e+01  6.6963597027598993e+01  6.7299282057359520e+01  6.8541524013013643e+01  6.6747722585421926e+01  6.8551854336256298e+01  6.6552564735567714e+01  6.9579874122476667e+01  7.1571734184503782e+01  6.8829523119608780e+01  6.3757520371392694e+01  7.1619026221787351e+01  6.5680357518151880e+01  6.3698577887417841e+01  6.4001172604987815e+01  6.3993285446089047e+01  6.7352570083677392e+01  6.5647552127587005e+01  6.3019237316461641e+01  6.9808653173070610e+01  7.1959892004722136e+01  6.7624073332581247e+01  6.5718759195190060e+01  6.4533273212390839e+01  6.8739993399971155e+01  6.8489078943231561e+01  6.2878687822914181e+01  7.1434559928009193e+01  6.8169929814829302e+01  6.9950535471949706e+01  6.5580075941086534e+01  6.9978717393450680e+01  6.9721425321667141e+01  7.2196094295875156e+01  6.6735296463026785e+01  6.8543702663280527e+01  6.8530562912558722e+01  6.6750212428295725e+01  6.6724656541956676e+01  6.6724678967467042e+01  6.2927455554776913e+01  7.2931002283423140e+01  6.8676882649132736e+01  7.1333534055250993e+01  6.5546122846725908e+01  6.9704887171157267e+01  6.9250628664720978e+01  6.8422617583543783e+01  7.0145259818268727e+01  7.1095650652247599e+01  7.1659019469742589e+01  6.6817217939363246e+01  6.8597280168364790e+01  6.6656637555699291e+01  6.3528178721440412e+01  6.8545331683438746e+01  6.6153950376504937e+01  7.2472900387127098e+01  6.6793002066758575e+01  7.2280378995028286e+01  7.2419101107084757e+01  6.3092641847763424e+01  6.3018222783138924e+01  7.2763184497969220e+01  7.2773272592552587e+01  7.0746184685901696e+01  6.6243112229024717e+01  6.6309007667181575e+01  6.6637420433151505e+01  6.6215781429088779e+01  6.5809068880724553e+01  6.7316613148007917e+01  6.2819215272199742e+01  6.5447752293386671e+01  6.6667728392873812e+01  7.1206927464796379e+01  7.0438063386052306e+01  6.6822844668107038e+01  6.5832612246603674e+01  6.5502415629239565e+01  6.6064442201812810e+01  6.4326476534116125e+01  7.1009477944228237e+01  7.0043972387595915e+01  6.8559328712959584e+01  6.8771543795982467e+01  6.8682385434967699e+01  7.1327002019270395e+01  6.2698331973793465e+01  7.3119704948419155e+01  7.3073397232603710e+01  7.3078156643171155e+01  6.2755825876018882e+01  6.2664216620310157e+01  6.3615068390384614e+01  6.8200767165050522e+01  6.3815344912643205e+01  6.9194180836145804e+01  6.4477863085658313e+01  6.6685198661893111e+01  6.6667133238534419e+01  6.8574363873548393e+01  6.8594470198280533e+01  6.8585721315695793e+01  6.5539853519826863e+01  7.3159046639663515e+01  6.8600392223606676e+01  6.6643765943143535e+01  6.3147925410583539e+01  6.9569549850717237e+01  6.5784841018274435e+01  6.9157230070197357e+01  7.1299175254419040e+01  6.8577423870016048e+01  6.6734939904905389e+01  6.8548726252060661e+01  6.5052360324197537e+01  6.3975837575353204e+01  6.3984291645352457e+01  6.3705505940359579e+01  7.1896601499804760e+01  6.5665122988483915e+01  7.2719895853593925e+01  6.3816096224321711e+01  6.8497113658001496e+01  6.6788166795616945e+01  6.8900442098825010e+01  6.9538664144110385e+01  6.2726597657841737e+01  6.5898196713616016e+01  7.2705607512911840e+01  6.4081090576067069e+01  6.6586782818046061e+01  6.4713370846133799e+01  7.1002214393804337e+01  6.7734916418303015e+01  6.5582999158079261e+01  6.5833676119881744e+01  6.5322644668015982e+01  6.6623383580046379e+01  7.1947654029463024e+01  7.0146634709437024e+01  6.7351362428061208e+01  6.6936029781986321e+01  6.6821575606547484e+01  6.7106321729022952e+01  6.7125719510074092e+01  6.5622872208362850e+01  6.8295875935690475e+01  6.8522386051858263e+01  6.7473542348484102e+01  6.6735653331769470e+01  6.8547665627966722e+01  6.6794560553976865e+01  7.1410968007208709e+01  6.8358872801355929e+01  6.9985185475230068e+01  6.9952753739234964e+01  7.0106422499217857e+01  6.7031336335228588e+01  6.6470508244216475e+01  6.4353807561972090e+01  6.4352353352350121e+01  6.4227345016356281e+01  6.7515460691417530e+01  6.3007030935137315e+01  6.6734144260187222e+01  6.7924754445193031e+01  7.2730154046112602e+01  7.2861282041821411e+01  7.2243721934569635e+01  6.7850053081067344e+01  6.7754234920432623e+01  6.7536556981967280e+01  6.6663684346607283e+01  6.5051996576506212e+01  7.2031071284780751e+01  7.0997243403813897e+01  6.3032510169510587e+01  7.0099072998006818e+01  7.0334098877902576e+01  6.6881911461487661e+01  7.1865699139113204e+01  6.4646862608456928e+01  7.0405063227127499e+01  6.4541846313098432e+01  7.0448724215012575e+01  6.6380988744617085e+01  6.6550476090510230e+01  6.5218285849025847e+01  7.1144589496871774e+01  6.5151944624220235e+01  6.4473236117867600e+01  6.6959906692468095e+01  6.6707280406798972e+01  7.1139037323137387e+01  6.5700228358852911e+01  6.7869808641390520e+01  6.9751691825107201e+01  6.7857911670861597e+01  6.5306433510103389e+01  7.0351993017813300e+01  6.2664307072540502e+01  7.3140259279698881e+01  7.011