<?xml version="1.0"?>
<VTKFile type="UnstructuredGrid"  version="0.1"  >
<UnstructuredGrid>
<Piece  NumberOfPoints="2331" NumberOfCells="4248">
<Points>
<DataArray  type="Float64"  NumberOfComponents="3"  format="ascii">0 0.3 0  0 0 0  0.04999999999999999 0 0  0.0514582251803892 0.02410733605106462 0  0.0558116365147896 0.04786313285751154 0  0.06299675146291706 0.07092097740850717 0  0.07290879486935808 0.09294463440875382 0  0.08540322682126872 0.1136129493462312 0  0.1002978503657798 0.132624531648159 0  0.117375468351841 0.1497021496342203 0  0.1363870506537689 0.1645967731787313 0  0.1570553655912463 0.177091205130642 0  0.1790790225914929 0.187003248537083 0  0.2021368671424885 0.1941883634852104 0  0.2258926639489354 0.1985417748196108 0  0.25 0.2 0  0.2741073360510646 0.1985417748196108 0  0.2978631328575116 0.1941883634852104 0  0.3209209774085071 0.187003248537083 0  0.3429446344087537 0.177091205130642 0  0.3636129493462312 0.1645967731787313 0  0.3826245316481591 0.1497021496342202 0  0.3997021496342202 0.132624531648159 0  0.4145967731787313 0.1136129493462312 0  0.427091205130642 0.09294463440875371 0  0.4370032485370829 0.07092097740850713 0  0.4441883634852104 0.04786313285751155 0  0.4485417748196108 0.02410733605106461 0  0.45 0 0  0.55 0 0  0.5514582251803892 0.02410733605106462 0  0.5558116365147896 0.04786313285751154 0  0.5629967514629171 0.07092097740850717 0  0.5729087948693581 0.09294463440875382 0  0.5854032268212688 0.1136129493462312 0  0.6002978503657798 0.132624531648159 0  0.617375468351841 0.1497021496342203 0  0.6363870506537689 0.1645967731787313 0  0.6570553655912463 0.177091205130642 0  0.6790790225914929 0.187003248537083 0  0.7021368671424885 0.1941883634852104 0  0.7258926639489354 0.1985417748196108 0  0.75 0.2 0  0.7741073360510646 0.1985417748196108 0  0.7978631328575116 0.1941883634852104 0  0.8209209774085071 0.187003248537083 0  0.8429446344087537 0.177091205130642 0  0.8636129493462312 0.1645967731787313 0  0.8826245316481591 0.1497021496342202 0  0.8997021496342202 0.132624531648159 0  0.9145967731787312 0.1136129493462312 0  0.927091205130642 0.09294463440875371 0  0.9370032485370829 0.07092097740850713 0  0.9441883634852104 0.04786313285751155 0  0.9485417748196108 0.02410733605106461 0  0.95 0 0  1 0 0  1 0.3 0  0.9758926639489353 0.3014582251803892 0  0.9521368671424885 0.3058116365147896 0  0.9290790225914928 0.3129967514629171 0  0.9070553655912461 0.3229087948693581 0  0.8863870506537688 0.3354032268212687 0  0.867375468351841 0.3502978503657798 0  0.8502978503657798 0.367375468351841 0  0.8354032268212687 0.3863870506537689 0  0.822908794869358 0.4070553655912464 0  0.8129967514629171 0.4290790225914929 0  0.8058116365147896 0.4521368671424885 0  0.8014582251803892 0.4758926639489354 0  0.8 0.4999999999999999 0  0.8014582251803892 0.5241073360510646 0  0.8058116365147896 0.5478631328575115 0  0.8129967514629171 0.5709209774085071 0  0.8229087948693581 0.5929446344087538 0  0.8354032268212688 0.6136129493462312 0  0.8502978503657798 0.632624531648159 0  0.867375468351841 0.6497021496342202 0  0.8863870506537689 0.6645967731787313 0  0.9070553655912463 0.677091205130642 0  0.9290790225914929 0.6870032485370829 0  0.9521368671424885 0.6941883634852104 0  0.9758926639489354 0.6985417748196108 0  1 0.7 0  1 1 0  0.95 1 0  0.9485417748196108 0.9758926639489353 0  0.9441883634852104 0.9521368671424885 0  0.9370032485370829 0.9290790225914928 0  0.927091205130642 0.9070553655912463 0  0.9145967731787312 0.8863870506537688 0  0.8997021496342201 0.8673754683518409 0  0.882624531648159 0.8502978503657798 0  0.863612949346231 0.8354032268212686 0  0.8429446344087537 0.822908794869358 0  0.8209209774085071 0.8129967514629171 0  0.7978631328575114 0.8058116365147896 0  0.7741073360510646 0.8014582251803892 0  0.75 0.8 0  0.7258926639489353 0.8014582251803892 0  0.7021368671424885 0.8058116365147896 0  0.6790790225914928 0.8129967514629171 0  0.6570553655912461 0.8229087948693581 0  0.6363870506537688 0.8354032268212688 0  0.617375468351841 0.8502978503657798 0  0.6002978503657798 0.867375468351841 0  0.5854032268212687 0.8863870506537689 0  0.572908794869358 0.9070553655912463 0  0.5629967514629171 0.9290790225914929 0  0.5558116365147896 0.9521368671424885 0  0.5514582251803892 0.9758926639489355 0  0.55 0.9999999999999999 0  0.45 0.9999999999999999 0  0.4485417748196108 0.9758926639489353 0  0.4441883634852104 0.9521368671424885 0  0.4370032485370829 0.9290790225914928 0  0.427091205130642 0.9070553655912463 0  0.4145967731787313 0.8863870506537688 0  0.3997021496342201 0.8673754683518409 0  0.382624531648159 0.8502978503657798 0  0.363612949346231 0.8354032268212686 0  0.3429446344087536 0.822908794869358 0  0.3209209774085071 0.8129967514629171 0  0.2978631328575115 0.8058116365147896 0  0.2741073360510646 0.8014582251803892 0  0.25 0.8 0  0.2258926639489353 0.8014582251803892 0  0.2021368671424885 0.8058116365147896 0  0.1790790225914928 0.8129967514629171 0  0.1570553655912462 0.8229087948693581 0  0.1363870506537688 0.8354032268212688 0  0.117375468351841 0.8502978503657798 0  0.1002978503657797 0.867375468351841 0  0.08540322682126869 0.8863870506537689 0  0.07290879486935797 0.9070553655912463 0  0.06299675146291703 0.9290790225914929 0  0.05581163651478957 0.9521368671424885 0  0.0514582251803892 0.9758926639489355 0  0.04999999999999999 0.9999999999999999 0  0 1 0  -0 0.7000000000000001 0  0.0241073360510646 0.6985417748196108 0  0.04786313285751161 0.6941883634852104 0  0.07092097740850711 0.6870032485370829 0  0.09294463440875372 0.677091205130642 0  0.1136129493462312 0.6645967731787312 0  0.1326245316481591 0.6497021496342202 0  0.1497021496342202 0.632624531648159 0  0.1645967731787313 0.6136129493462312 0  0.177091205130642 0.5929446344087537 0  0.187003248537083 0.5709209774085071 0  0.1941883634852104 0.5478631328575115 0  0.1985417748196108 0.5241073360510646 0  0.2 0.5 0  0.1985417748196108 0.4758926639489353 0  0.1941883634852104 0.4521368671424885 0  0.1870032485370829 0.4290790225914928 0  0.177091205130642 0.4070553655912463 0  0.1645967731787313 0.3863870506537688 0  0.1497021496342202 0.3673754683518409 0  0.132624531648159 0.3502978503657798 0  0.113612949346231 0.3354032268212686 0  0.09294463440875361 0.322908794869358 0  0.07092097740850711 0.3129967514629171 0  0.04786313285751148 0.3058116365147896 0  0.02410733605106464 0.3014582251803892 0  0.6985417748196108 0.5241073360510646 0  0.7 0.5 0  0.6985417748196108 0.4758926639489353 0  0.6941883634852104 0.4521368671424885 0  0.6870032485370829 0.4290790225914928 0  0.677091205130642 0.4070553655912463 0  0.6645967731787312 0.3863870506537688 0  0.6497021496342201 0.3673754683518409 0  0.632624531648159 0.3502978503657798 0  0.613612949346231 0.3354032268212686 0  0.5929446344087537 0.322908794869358 0  0.5709209774085071 0.3129967514629171 0  0.5478631328575114 0.3058116365147896 0  0.5241073360510646 0.3014582251803892 0  0.4999999999999999 0.3 0  0.4758926639489353 0.3014582251803892 0  0.4521368671424885 0.3058116365147896 0  0.4290790225914928 0.3129967514629171 0  0.4070553655912462 0.3229087948693581 0  0.3863870506537688 0.3354032268212687 0  0.367375468351841 0.3502978503657798 0  0.3502978503657798 0.367375468351841 0  0.3354032268212687 0.3863870506537689 0  0.322908794869358 0.4070553655912464 0  0.3129967514629171 0.4290790225914929 0  0.3058116365147896 0.4521368671424885 0  0.3014582251803892 0.4758926639489354 0  0.3 0.4999999999999999 0  0.3014582251803892 0.5241073360510646 0  0.3058116365147896 0.5478631328575115 0  0.3129967514629171 0.5709209774085071 0  0.3229087948693581 0.5929446344087538 0  0.3354032268212687 0.6136129493462312 0  0.3502978503657798 0.632624531648159 0  0.367375468351841 0.6497021496342202 0  0.3863870506537689 0.6645967731787313 0  0.4070553655912463 0.677091205130642 0  0.4290790225914929 0.6870032485370829 0  0.4521368671424885 0.6941883634852104 0  0.4758926639489354 0.6985417748196108 0  0.4999999999999999 0.7 0  0.5241073360510646 0.6985417748196108 0  0.5478631328575116 0.6941883634852104 0  0.5709209774085071 0.6870032485370829 0  0.5929446344087537 0.677091205130642 0  0.6136129493462312 0.6645967731787312 0  0.6326245316481591 0.6497021496342202 0  0.6497021496342202 0.632624531648159 0  0.6645967731787312 0.6136129493462312 0  0.677091205130642 0.5929446344087537 0  0.6870032485370829 0.5709209774085071 0  0.6941883634852104 0.5478631328575115 0  0 0.15 0  1 0.15 0  1 0.85 0  0 0.8500000000000001 0  0 0.075 0  1 0.075 0  1 0.925 0  0 0.925 0  0.5 0.8127595604293815 0  0.5069440078039168 0.190422209288238 0  0.25 0.3127595604293815 0  0.756944007803917 0.3095777907117619 0  0.756944007803917 0.6904222092882382 0  0.25 0.6872404395706185 0  0 0.225 0  0.4255768646051012 0.2241073097134061 0  1 0.7749999999999999 0  0.6773391559270888 0.2766774022734219 0  1 0.225 0  0.6755768646051011 0.7241073097134062 0  0 0.7750000000000001 0  0.5818971135297744 0.2287925518358889 0  0.8318971135297746 0.728792551835889 0  0.1659156081861886 0.7301636995921477 0  0.08376842746533225 0.2299656297760495 0  0.4236002201977974 0.7746535834185855 0  0.0840843918138115 0.7698363004078523 0  0.3340843918138113 0.7301636995921477 0  0.3340843918138114 0.2698363004078523 0  0.9159156081861887 0.2301636995921477 0  0.5840843918138116 0.7698363004078522 0  0.1659156081861887 0.2698363004078523 0  0.9162315725346678 0.7700343702239506 0  0.8340843918138114 0.2698363004078523 0  0.75 0.6146645247768686 0  0.5 0.1125158665330878 0  0.75 0.3874841334669124 0  0.2504983345544904 0.6122915843562002 0  0.2504983345544902 0.3877084156437999 0  0.5 0.8879783056303169 0  0.7005361650220154 0.3333055947145943 0  0.70416808765371 0.6599554817221275 0  0.449930214263529 0.1678187287522426 0  0.2247310981387008 0.7415600637745463 0  0.5155081196221678 0.7563797802146907 0  0.2752689018612993 0.2584399362254537 0  0.05605196690611226 0.8246131191226815 0  0.9439480330938878 0.1
[...]
<PointData  Scalars="Temperature"> 
<DataArray  type="Float64"  Name="Temperature"  format="ascii">1.0775839934440683e+02  1.1335550699283107e+02  1.1334620935235928e+02  1.1321794111449620e+02  1.1285939555675581e+02  1.1230225870335954e+02  1.1155795985301130e+02  1.1063512384470349e+02  1.0954313125952565e+02  1.0826658881865582e+02  1.0676966457535940e+02  1.0506796574466107e+02  1.0320822576393212e+02  1.0122755956677609e+02  9.9160832006998191e+01  9.7055895602326402e+01  9.4917163670510618e+01  9.2738197187745754e+01  9.0565099877301023e+01  8.8391076442969563e+01  8.6323638911896737e+01  8.4432129868741058e+01  8.2791599502741988e+01  8.1503161736975869e+01  8.0558127677472825e+01  7.9944976864886897e+01  7.9584043508632391e+01  7.9414792222475626e+01  7.9367775023672991e+01  7.9007219098553307e+01  7.8926800409553508e+01  7.8669804828728928e+01  7.8169835515251620e+01  7.7368427811076387e+01  7.6181958609464914e+01  7.4602325403566837e+01  7.2660117296971251e+01  7.0421594678341478e+01  6.7989164502185673e+01  6.5500440109519886e+01  6.3087294953966627e+01  6.0856475935050021e+01  5.8864341281443231e+01  5.7126132283980986e+01  5.5631869877197722e+01  5.4374206719960121e+01  5.3302533144410646e+01  5.2403318489200203e+01  5.1659303525658743e+01  5.1037804738274488e+01  5.0525634330730519e+01  5.0101135017998310e+01  4.9762526764559745e+01  4.9510286725152817e+01  4.9348150321722748e+01  4.9290272807574922e+01  4.9285588944728886e+01  5.1675837157337739e+01  5.1774220547851179e+01  5.2057553178042951e+01  5.2493514279833335e+01  5.3018480916970567e+01  5.3551562318255776e+01  5.3988780039230562e+01  5.4237382629592268e+01  5.4218140475733428e+01  5.3902196770546659e+01  5.3243824684673207e+01  5.2321411572084010e+01  5.1206763694593519e+01  5.0002855960828498e+01  4.8812443580238281e+01  4.7701972620081527e+01  4.6675217819268568e+01  4.5733745285339836e+01  4.4828911326139178e+01  4.3944104076765022e+01  4.3089294373780298e+01  4.2258286849819747e+01  4.1499911632199854e+01  4.0849057014385274e+01  4.0352591244568544e+01  4.0045064737516611e+01  3.9937014473736916e+01  3.7627182449552393e+01  3.7630737667809065e+01  3.7682834003316621e+01  3.7829109122958300e+01  3.8057322832984845e+01  3.8364919168303814e+01  3.8749732412478515e+01  3.9213818913233993e+01  3.9765942646556525e+01  4.0412822277497710e+01  4.1165526105943641e+01  4.2018020882980892e+01  4.2946521895220080e+01  4.3952140612484392e+01  4.5001452939086946e+01  4.6122067806911865e+01  4.7298078829363440e+01  4.8520355447430909e+01  4.9757250298299525e+01  5.0969415786903127e+01  5.2066124543669169e+01  5.3025329116768837e+01  5.3759898616897814e+01  5.4290531174414262e+01  5.4608575240769284e+01  5.4770242213780627e+01  5.4839344108683704e+01  5.4855098981843867e+01  5.5097700194096724e+01  5.5174527457658535e+01  5.5400914375813343e+01  5.5810609096388085e+01  5.6452269242727311e+01  5.7386422308746930e+01  5.8602907111807468e+01  6.0098904989919689e+01  6.1799489548538304e+01  6.3647886065660494e+01  6.5509653838584526e+01  6.7266012748530514e+01  6.8840193054369223e+01  7.0137838605765879e+01  7.1161474714630245e+01  7.1909610783375584e+01  7.2438134366489308e+01  7.2796063875406944e+01  7.3035173058366468e+01  7.3196562810321396e+01  7.3305766497823527e+01  7.3380081878445722e+01  7.3433811675352260e+01  7.3471721257885960e+01  7.3498560204459352e+01  7.3514530824242399e+01  7.3520487537418063e+01  7.3520716331442557e+01  7.3428366114317427e+01  7.3428391061283165e+01  7.3434491896117237e+01  7.3464572475198409e+01  7.3552316409564042e+01  7.3747475849029215e+01  7.4117969480854171e+01  7.4734623659915499e+01  7.5676447450526069e+01  7.6977616758031914e+01  7.8675116037489914e+01  8.0727523019935347e+01  8.3066247562693164e+01  8.5537840923833841e+01  8.8012036472414138e+01  9.0375233587932200e+01  9.2585711258718831e+01  9.4663538614102706e+01  9.6681466993504003e+01  9.8660445972475642e+01  1.0060615013917146e+02  1.0246358265129602e+02  1.0418033124882456e+02  1.0566424041419130e+02  1.0678736975364841e+02  1.0750643307059897e+02  4.9036075498124845e+01  5.0207489443216502e+01  5.1532048037089268e+01  5.2967994113868698e+01  5.4499632258712857e+01  5.6156997808772232e+01  5.7994229301205955e+01  6.0050319018812004e+01  6.2362268509841563e+01  6.4859272430664547e+01  6.7507630593353170e+01  7.0256939816555473e+01  7.3003651711667899e+01  7.5715955685826373e+01  7.8362824031530366e+01  8.0930586980137051e+01  8.3383864369641685e+01  8.5710537775482436e+01  8.7832528434462048e+01  8.9682026668148595e+01  9.1103768107279322e+01  9.2039567080958363e+01  9.2381583865235797e+01  9.2097913405792255e+01  9.1159384502722148e+01  8.9650801578773567e+01  8.7655989929831463e+01  8.5316458231920890e+01  8.2820405389890738e+01  8.0315103567898177e+01  7.7904639714347454e+01  7.5557270122933090e+01  7.3311979636511879e+01  7.1105996177322140e+01  6.8892599821836683e+01  6.6682978013133209e+01  6.4449769445314928e+01  6.2282475476368056e+01  6.0174026222685541e+01  5.8188885241941463e+01  5.6311822449657313e+01  5.4556607488715898e+01  5.2916788141739367e+01  5.1423959176762814e+01  5.0070207625451843e+01  4.8910289446185573e+01  4.7992699743717736e+01  4.7351321035021108e+01  4.7031230683080381e+01  4.7051838425110894e+01  4.7414460295734685e+01  4.8091043541827716e+01  1.1063736908804363e+02  5.0491966451765435e+01  3.8737261411576313e+01  7.3414452824503542e+01  1.1252119190260881e+02  4.9661522028432010e+01  3.7966836826513351e+01  7.3484422660692317e+01  5.5824348078340876e+01  7.8226241831861614e+01  9.5971837761847539e+01  5.7094518042540578e+01  4.5136018627038972e+01  7.2438528391989109e+01  1.0873761842066730e+02  8.4000430830709035e+01  3.9523254019952020e+01  6.2688388190457857e+01  5.1285519264982725e+01  4.7617814570835449e+01  7.3399199708111425e+01  7.2029253057940991e+01  4.2665069616138055e+01  7.2954442442255754e+01  1.0705222200104674e+02  6.0325028017700149e+01  7.3277998798258324e+01  6.7158852458657947e+01  9.1297833395533047e+01  5.2087625418008201e+01  5.1936557690951396e+01  1.0184414159948467e+02  4.0261238741717790e+01  5.4485495633502481e+01  4.6271982308557909e+01  7.8957635700666486e+01  5.5031325278780486e+01  7.6210128630737117e+01  9.3485966853041674e+01  5.5359567190171653e+01  5.9040460062451054e+01  4.6553193345886243e+01  8.1462744736219349e+01  7.1649335823894958e+01  5.5264145216241197e+01  9.5086698248242726e+01  7.3344826966806153e+01  5.1073814092832606e+01  1.0937285574575979e+02  3.9318582059127927e+01  7.9760190291723632e+01  4.5736146794294264e+01  5.9380701275687940e+01  5.7985163218699093e+01  7.3805153785280922e+01  9.8619660180122807e+01  7.0765432044712384e+01  9.3065488182379482e+01  5.3542676692238764e+01  7.9126908883511746e+01  5.2696232422719227e+01  4.8196037648949364e+01  9.0121534260206346e+01  8.1293641012709131e+01  5.4973588846930618e+01  5.5084942801934815e+01  9.8581171476921810e+01  6.9832066545917797e+01  7.5040210173250344e+01  4.4844719463315116e+01  5.4957002227682139e+01  6.7205092167615092e+01  8.7474185806900437e+01  8.8546736333462576e+01  4.9495645535608055e+01  5.0130147576982118e+01  6.6440758525056481e+01  4.4075848686837446e+01  5.6492595311502292e+01  5.0364070033336823e+01  7.9188642954232677e+01  8.5939173071450057e+01  6.3667634146981449e+01  6.4172193750394499e+01  7.5907324357529419e+01  4.1317916891032553e+01  4.1403189283307029e+01  5.7598460614620905e+01  1.0513201279636027e+02  7.3395832109808879e+01  5.2795630794306575e+01  7.2955507994093253e+01  1.0412498436329348e+02  7.3330540025146121e+01  5.1697653473013695e+01  5.3289796093468617e+01  4.0012172055514192e+01  1.0758573398078416e+02  5.0398434258541819e+01  3.8580918465332843e+01  1.1103271995977597e+02  7.3409082829673764e+01  5.4798970839587710e+01  4.3903112398342309e+01  7.7152038295443504e+01  4.6282083618417303e+01  5.1774389830445031e+01  6.7886089336264121e+01  1.0146971046964325e+02  5.1868842889264926e+01  9.0893683754241636e+01  7.3632211641515525e+01  7.3201509115565642e+01  1.0774040927913475e+02  4.0061912938639161e+01  7.5413251536009454e+01  9.5892065127384754e+01  5.4853861949121068e+01  4.2894771630630459e+01  9.4124160332010121e+01  7.3475998486548121e+01  6.2592096932052712e+01  6.2734166970804409e+01  6.0730353802684910e+01  8.3164850223486738e+01  4.8184803897576593e+01  8.4984188074493531e+01  4.7677407416990924e+01  5.6604662698829323e+01  5.9656187203736856e+01  7.1662948727165798e+01  5.9588319078426153e+01  4.2876790474864350e+01  7.0622824327859803e+01  7.2229345451115947e+01  9.1695946255559676e+01  6.7501457052840522e+01  1.0117320848641583e+02  5.4014036334041251e+01  5.2177340095287384e+01  8.0807618602332866e+01  1.0857932322748357e+02  5.4785742061665012e+01  5.1424042605827651e+01  7.3357944836363359e+01  5.4341606495643376e+01  7.3396641208098856e+01  5.0917382598854495e+01  5.5721257153006135e+01  3.9140868532474094e+01  8.0444924652591354e+01  5.6758790178036783e+01  5.6741680124083835e+01  7.9362122429593299e+01  1.0964287928280284e+02  4.6866388219116509e+01  4.6946188106030327e+01  4.5576206400064507e+01  7.8625102057048665e+01  9.3446682954128420e+01  7.4356465514402402e+01  9.2803124354804609e+01  7.3394629202155230e+01  7.9599337351970448e+01  7.8493682418530724e+01  5.3625395963991494e+01  5.4609896464933378e+01  5.4302970940718481e+01  5.4845220813320687e+01  5.5764258416716388e+01  3.9152029842239280e+01  7.3417091319495157e+01  3.8328468804188617e+01  5.1550543389276839e+01  1.0804606955812740e+02  4.9385280164558274e+01  1.1313516877587335e+02  5.0053171360880917e+01  4.9907268406266795e+01  1.1163947037942781e+02  3.7716475059893007e+01  7.3510969654063260e+01  3.9812074993645318e+01  7.3448560039109410e+01  7.3458222699114032e+01  9.1655062666172824e+01  7.8256929522165379e+01  7.2673585684582406e+01  9.3508870331926985e+01  5.6404916731559389e+01  4.0640171581472700e+01  6.9763034287237517e+01  9.8029556852857866e+01  4.4639046939832063e+01  4.5699656359534472e+01  5.7213343237020972e+01  3.9629434900433473e+01  5.3429585183051522e+01  7.7039735724501313e+01  7.4150056782820172e+01  9.5610969251025168e+01  1.0411395020296888e+02  6.9354431741598120e+01  7.7183063196433494e+01  5.7409732510457040e+01  5.5856989931350469e+01  5.4041441330101847e+01  4.7168838854876320e+01  4.7371657162746757e+01  3.8176037526163213e+01  1.1201014612023222e+02  1.0608851000047747e+02  4.3901273110400282e+01  7.0858542130746457e+01  9.8003160185390229e+01  5.3439450121306741e+01  7.4631651963274919e+01  4.6448659942722017e+01  5.2146423588178493e+01  5.8819075055375485e+01  8.6194486911346033e+01  4.8771042760578879e+01  6.1740811477885600e+01  1.1283318612964497e+02  4.9585064761202339e+01  3.7840528946255496e+01  7.3497105870835611e+01  6.2667039760999991e+01  4.7660767356390416e+01  8.1969385754303332e+01  7.3344642917408635e+01  7.3392512531489317e+01  5.0856968191745679e+01  5.0766929210457711e+01  6.5327750362570228e+01  1.0912177924837015e+02  1.0825487347739482e+02  1.1001226509378678e+02  8.3068989379124858e+01  8.2601203759483170e+01  1.0640638664655771e+02  5.7328760233318420e+01  7.3538401458712372e+01  7.2979461240529687e+01  5.2690861718242409e+01  6.1023950731924131e+01  5.7832705541354180e+01  8.7202345030581853e+01  4.9373920084358332e+01  3.8920620511109774e+01  4.6915062772080162e+01  4.5917959910120608e+01  7.3041174574465103e+01  5.4884718375691143e+01  5.4306506022076825e+01  7.9302209154257966e+01  7.9042844957754056e+01  5.1464201384415070e+01  5.2222377198302205e+01  8.8060419509401171e+01  8.9238920044690587e+01  6.1054487444403875e+01  4.2011821951149884e+01  5.5196624390023644e+01  6.6743984057695982e+01  9.3032794116438652e+01  6.5703618737358724e+01  9.9934567440193405e+01  6.9170971757704351e+01  7.0966541239628938e+01  7.2525360823654069e+01  9.4119378268811985e+01  9.6498643727063339e+01  7.1614263279216587e+01  5.2706591056488350e+01  5.3512198027201983e+01  9.4428304980132097e+01  7.3281427385361127e+01  9.2598893018845914e+01  9.9499518991757512e+01  7.0125872349293786e+01  7.4747100011840303e+01  5.4645409853249873e+01  4.9265216159883465e+01  4.9414771914637043e+01  8.4081844292421167e+01  8.3626427416302818e+01  1.0346099900435821e+02  4.6829923720709537e+01  4.6407867680081090e+01  4.5454238377232187e+01  8.5627473289647426e+01  4.8819719205744462e+01  5.5680513076528840e+01  8.5265431797982089e+01  5.7850885053363399e+01  5.8881178938353166e+01  5.8164410594334434e+01  7.9671352385886351e+01  7.8956479141834095e+01  6.0609821997642484e+01  6.4505323778005987e+01  3.9746035401642224e+01  1.0595639451896284e+02  5.4483834424121966e+01  7.5478688244228664e+01  4.1578117916909420e+01  4.0751851524390759e+01  5.5892765913675611e+01  5.4748524077035206e+01  5.3762820479801100e+01  7.2585769765553039e+01  8.8806579345041115e+01  8.9836939804978726e+01  5.0447874039449580e+01  5.0892596278398841e+01  6.2687956443533508e+01  7.2803655700961968e+01  7.8280087805404406e+01  6.9731773820271030e+01  5.2746688329505957e+01  4.6988322946408871e+01  5.1633561847018441e+01  7.3298673309664821e+01  7.4462482831991053e+01  3.7628982024682244e+01  4.9287787770512679e+01  1.1335159856862593e+02  7.3520666883477219e+01  7.9871942594442885e+01  6.8856068852765347e+01  8.9435191017980443e+01  5.9347643194960149e+01  4.8394541927408902e+01  5.3449483614350974e+01  7.8784879099142927e+01  7.9456065100938858e+01  9.2026122534576288e+01  5.6016622760203312e+01  4.2171302684367127e+01  4.1662716446419644e+01  4.0907124349377810e+01  4.2138664097089432e+01  5.0925367018630986e+01  8.9804127240482316e+01  7.7019135473808959e+01  5.4996080738644181e+01  5.4890929666210759e+01  5.5227687985781358e+01  5.0299003674197522e+01  4.7783435579916286e+01  8.1205698977362303e+01  8.0569868404898415e+01  1.0281612094195552e+02  9.2067180883179731e+01  6.2233574126939217e+01  1.0568048650042759e+02  7.3369530321153903e+01  6.5603370435202891e+01  5.3964679009220738e+01  1.0831914481028265e+02  8.1678386101113759e+01  4.4857639713895750e+01  4.4877494532277368e+01  3.9551885889420930e+01  7.2531109652157781e+01  1.0039045007628071e+02  6.8525440702252780e+01  7.2776706661054831e+01  7.3105835219080177e+01  7.3172654591641532e+01  8.6786052318247798e+01  5.0837178112858609e+01  1.1012740559878233e+02  4.0576281776764503e+01  9.1418956700185831e+01  6.5037407846232441e+01  7.3388147098931739e+01  5.1078975300832361e+01  4.5609823165226572e+01  6.1087629820428987e+01  9.1746804714515676e+01  5.2558914850208033e+01  9.7677026410660147e+01  5.2589800575390875e+01  3.9721095522392751e+01  7.3447199326892672e+01  6.4937950277188719e+01  9.0008973124679301e+01  5.2350697981551896e+01  7.9053266369737315e+01  4.9391466637543608e+01  7.3513587620276226e+01  1.1319880350388632e+02  3.7689982880113305e+01  7.0661741373984313e+01  5.5580016282531155e+01  4.1243301370232018e+01  5.4032781752929310e+01  7.3303066399311334e+01  6.4296328731206131e+01  5.2237347102355592e+01  5.1279273023032580e+01  1.0691214457151483e+02  7.4048948350634319e+01  7.3308482881150496e+01  7.2193769739460706e+01  5.5424567576567497e+01  6.4001680860885003e+01  6.6207244739969724e+01  7.3420006526549685e+01  5.1852060024260069e+01  7.3390980518484881e+01  5.4116971338020392e+01  7.6593474121422332e+01  9.6054003527381340e+01  7.6660782417671669e+01  4.3650710522783122e+01  9.7139777394380161e+01  5.5645648548307896e+01  4.3237706065464430e+01  4.4866019370771042e+01  4.4688021428971069e+01  5.8635110588863249e+01  5.5491157315518635e+01  3.9972145831301127e+01  7.8130089584053664e+01  9.9904220960834550e+01  6.8178971825359582e+01  5.5940901906547865e+01  4.6875894901785919e+01  7.5985108954373430e+01  7.3126996290849746e+01  3.9334566398065945e+01  9.4980251175859252e+01  7.1943649310504682e+01  7.9063123978309974e+01  5.5059386480448090e+01  7.9315411380603322e+01  7.7386179901908122e+01  1.0221329739461208e+02  5.1399774384283667e+01  7.3286365379680518e+01  7.3355776973898941e+01  5.1791606737350179e+01  5.1435526804836165e+01  5.1414267652086409e+01  3.9580744365131501e+01  1.0932039657720173e+02  6.9051094764470037e+01  9.5081054936405124e+01  5.4826307156515199e+01  7.7818831243140821e+01  7.3896257275286800e+01  6.7190903926760328e+01  8.1934472480339124e+01  9.2822600385263996e+01  9.7012570678425803e+01  5.3332782013211116e+01  7.3426651141642196e+01  5.0306487058877323e+01  4.2475016163523115e+01  7.4317480483209863e+01  5.8744305182000645e+01  1.0500324184062453e+02  5.2705228406667068e+01  1.0310202879153061e+02  1.0437652338021819e+02  4.0293003883776677e+01  3.9952962961366936e+01  1.0772037831384465e+02  1.0781263030492505e+02  8.7648302460782801e+01  5.9325981589257879e+01  5.3704468680743027e+01  5.4665879244550382e+01  5.9148673475837384e+01  5.6500080649987034e+01  5.7976091926321047e+01  3.9069720452174124e+01  5.4176705327679912e+01  6.2070830840639054e+01  9.3273121662580863e+01  8.8278096795273854e+01  5.4962695924358414e+01  5.1508192084656464e+01  5.4545872804613190e+01  5.8162836501185467e+01  4.6059576736602729e+01  9.2111924045914890e+01  8.0207163924223337e+01  7.3368177586590591e+01  7.5964837843383975e+01  7.5434454647957097e+01  9.4820756495689565e+01  3.8529026907111692e+01  1.1114510475035102e+02  1.1069560875230843e+02  1.1074184132026841e+02  3.8793680578004746e+01  3.8379293421321627e+01  4.2645355291022874e+01  7.1670353952187099e+01  4.3754726365519389e+01  7.9221966180245346e+01  4.6199148291308461e+01  5.0730486074437209e+01  5.0478541636832496e+01  7.3381491251460375e+01  7.3429903418629621e+01  7.3411377144141383e+01  5.4794209460780188e+01  1.1152797772020175e+02  7.3439253519598211e+01  5.0131905067215662e+01  4.0562601240922746e+01  7.6277975551928165e+01  5.6372747105992602e+01  7.3258766214254067e+01  9.4419822878145041e+01  7.4749366701905601e+01  5.1636799535366684e+01  7.3425112616235154e+01  4.8478232866211961e+01  4.4327416577970048e+01  4.4508357451440006e+01  4.3145694757508451e+01  9.9335990102329291e+01  5.5585183010849057e+01  1.0727804212269339e+02  4.3596484011543424e+01  7.3112218796716917e+01  5.2093256824302202e+01  7.7032462190379491e+01  7.6146605947281188e+01  3.8656163661419313e+01  5.7098879336872393e+01  1.0717772604668905e+02  4.5451058167915917e+01  4.9308015655549490e+01  4.9268127210457159e+01  9.0235154271706364e+01  6.8911296823731945e+01  5.0448218870181549e+01  5.6668196183432933e+01  5.3326123374647935e+01  5.5286070693119406e+01  1.0014412837690467e+02  8.6144520004227417e+01  6.6448759202356626e+01  5.7019924318877173e+01  5.3916042045142945e+01  5.6637552623240751e+01  5.7951764852574371e+01  5.5318784279550862e+01  7.2183915969368996e+01  7.3752259488926185e+01  6.7392586568915192e+01  5.1637034157667188e+01  7.3419191677204765e+01  5.2481614752390172e+01  9.5157031755509365e+01  7.3175563419659611e+01  7.9691191146198676e+01  7.9500755940226270e+01  8.1014207430835015e+01  5.4942120567066098e+01  6.0809967705740014e+01  4.6566126166517236e+01  4.6826600539075493e+01  4.6091100368776722e+01  6.0541659685092498e+01  3.9935455219983766e+01  5.1422892243067103e+01  6.3402403515530622e+01  1.0738970864554364e+02  1.0864590174560051e+02  1.0270440691369008e+02  6.2346720538438909e+01  6.9210598741194232e+01  6.7757369487638385e+01  5.4364504535617982e+01  5.1584758218972802e+01  1.0098061884734537e+02  9.0552512651576194e+01  4.0072595308227264e+01  8.1431249866502810e+01  8.3604912002664918e+01  5.3888397407799644e+01  9.9200679589533507e+01  4.8592163244143634e+01  8.4139008803249382e+01  4.7995647301814337e+01  8.4464096733675518e+01  6.0218164868029241e+01  6.1308147756260666e+01  5.2665486953241007e+01  9.1629409118111766e+01  5.2137799780421851e+01  4.7837406301591358e+01  5.6814429855769745e+01  5.5507517517543796e+01  9.2067813335258109e+01  5.5825130443554706e+01  6.2716241210998092e+01  8.3284627516167959e+01  6.3109575003054807e+01  4.9399119691451695e+01  8.3892044335735051e+01  3.8377780262119636e+01  1.1134493952657188e+02  8.092