<?xml version="1.0"?>
<VTKFile type="UnstructuredGrid"  version="0.1"  >
<UnstructuredGrid>
<Piece  NumberOfPoints="2331" NumberOfCells="4248">
<Points>
<DataArray  type="Float64"  NumberOfComponents="3"  format="ascii">0 0.3 0  0 0 0  0.04999999999999999 0 0  0.0514582251803892 0.02410733605106462 0  0.0558116365147896 0.04786313285751154 0  0.06299675146291706 0.07092097740850717 0  0.07290879486935808 0.09294463440875382 0  0.08540322682126872 0.1136129493462312 0  0.1002978503657798 0.132624531648159 0  0.117375468351841 0.1497021496342203 0  0.1363870506537689 0.1645967731787313 0  0.1570553655912463 0.177091205130642 0  0.1790790225914929 0.187003248537083 0  0.2021368671424885 0.1941883634852104 0  0.2258926639489354 0.1985417748196108 0  0.25 0.2 0  0.2741073360510646 0.1985417748196108 0  0.2978631328575116 0.1941883634852104 0  0.3209209774085071 0.187003248537083 0  0.3429446344087537 0.177091205130642 0  0.3636129493462312 0.1645967731787313 0  0.3826245316481591 0.1497021496342202 0  0.3997021496342202 0.132624531648159 0  0.4145967731787313 0.1136129493462312 0  0.427091205130642 0.09294463440875371 0  0.4370032485370829 0.07092097740850713 0  0.4441883634852104 0.04786313285751155 0  0.4485417748196108 0.02410733605106461 0  0.45 0 0  0.55 0 0  0.5514582251803892 0.02410733605106462 0  0.5558116365147896 0.04786313285751154 0  0.5629967514629171 0.07092097740850717 0  0.5729087948693581 0.09294463440875382 0  0.5854032268212688 0.1136129493462312 0  0.6002978503657798 0.132624531648159 0  0.617375468351841 0.1497021496342203 0  0.6363870506537689 0.1645967731787313 0  0.6570553655912463 0.177091205130642 0  0.6790790225914929 0.187003248537083 0  0.7021368671424885 0.1941883634852104 0  0.7258926639489354 0.1985417748196108 0  0.75 0.2 0  0.7741073360510646 0.1985417748196108 0  0.7978631328575116 0.1941883634852104 0  0.8209209774085071 0.187003248537083 0  0.8429446344087537 0.177091205130642 0  0.8636129493462312 0.1645967731787313 0  0.8826245316481591 0.1497021496342202 0  0.8997021496342202 0.132624531648159 0  0.9145967731787312 0.1136129493462312 0  0.927091205130642 0.09294463440875371 0  0.9370032485370829 0.07092097740850713 0  0.9441883634852104 0.04786313285751155 0  0.9485417748196108 0.02410733605106461 0  0.95 0 0  1 0 0  1 0.3 0  0.9758926639489353 0.3014582251803892 0  0.9521368671424885 0.3058116365147896 0  0.9290790225914928 0.3129967514629171 0  0.9070553655912461 0.3229087948693581 0  0.8863870506537688 0.3354032268212687 0  0.867375468351841 0.3502978503657798 0  0.8502978503657798 0.367375468351841 0  0.8354032268212687 0.3863870506537689 0  0.822908794869358 0.4070553655912464 0  0.8129967514629171 0.4290790225914929 0  0.8058116365147896 0.4521368671424885 0  0.8014582251803892 0.4758926639489354 0  0.8 0.4999999999999999 0  0.8014582251803892 0.5241073360510646 0  0.8058116365147896 0.5478631328575115 0  0.8129967514629171 0.5709209774085071 0  0.8229087948693581 0.5929446344087538 0  0.8354032268212688 0.6136129493462312 0  0.8502978503657798 0.632624531648159 0  0.867375468351841 0.6497021496342202 0  0.8863870506537689 0.6645967731787313 0  0.9070553655912463 0.677091205130642 0  0.9290790225914929 0.6870032485370829 0  0.9521368671424885 0.6941883634852104 0  0.9758926639489354 0.6985417748196108 0  1 0.7 0  1 1 0  0.95 1 0  0.9485417748196108 0.9758926639489353 0  0.9441883634852104 0.9521368671424885 0  0.9370032485370829 0.9290790225914928 0  0.927091205130642 0.9070553655912463 0  0.9145967731787312 0.8863870506537688 0  0.8997021496342201 0.8673754683518409 0  0.882624531648159 0.8502978503657798 0  0.863612949346231 0.8354032268212686 0  0.8429446344087537 0.822908794869358 0  0.8209209774085071 0.8129967514629171 0  0.7978631328575114 0.8058116365147896 0  0.7741073360510646 0.8014582251803892 0  0.75 0.8 0  0.7258926639489353 0.8014582251803892 0  0.7021368671424885 0.8058116365147896 0  0.6790790225914928 0.8129967514629171 0  0.6570553655912461 0.8229087948693581 0  0.6363870506537688 0.8354032268212688 0  0.617375468351841 0.8502978503657798 0  0.6002978503657798 0.867375468351841 0  0.5854032268212687 0.8863870506537689 0  0.572908794869358 0.9070553655912463 0  0.5629967514629171 0.9290790225914929 0  0.5558116365147896 0.9521368671424885 0  0.5514582251803892 0.9758926639489355 0  0.55 0.9999999999999999 0  0.45 0.9999999999999999 0  0.4485417748196108 0.9758926639489353 0  0.4441883634852104 0.9521368671424885 0  0.4370032485370829 0.9290790225914928 0  0.427091205130642 0.9070553655912463 0  0.4145967731787313 0.8863870506537688 0  0.3997021496342201 0.8673754683518409 0  0.382624531648159 0.8502978503657798 0  0.363612949346231 0.8354032268212686 0  0.3429446344087536 0.822908794869358 0  0.3209209774085071 0.8129967514629171 0  0.2978631328575115 0.8058116365147896 0  0.2741073360510646 0.8014582251803892 0  0.25 0.8 0  0.2258926639489353 0.8014582251803892 0  0.2021368671424885 0.8058116365147896 0  0.1790790225914928 0.8129967514629171 0  0.1570553655912462 0.8229087948693581 0  0.1363870506537688 0.8354032268212688 0  0.117375468351841 0.8502978503657798 0  0.1002978503657797 0.867375468351841 0  0.08540322682126869 0.8863870506537689 0  0.07290879486935797 0.9070553655912463 0  0.06299675146291703 0.9290790225914929 0  0.05581163651478957 0.9521368671424885 0  0.0514582251803892 0.9758926639489355 0  0.04999999999999999 0.9999999999999999 0  0 1 0  -0 0.7000000000000001 0  0.0241073360510646 0.6985417748196108 0  0.04786313285751161 0.6941883634852104 0  0.07092097740850711 0.6870032485370829 0  0.09294463440875372 0.677091205130642 0  0.1136129493462312 0.6645967731787312 0  0.1326245316481591 0.6497021496342202 0  0.1497021496342202 0.632624531648159 0  0.1645967731787313 0.6136129493462312 0  0.177091205130642 0.5929446344087537 0  0.187003248537083 0.5709209774085071 0  0.1941883634852104 0.5478631328575115 0  0.1985417748196108 0.5241073360510646 0  0.2 0.5 0  0.1985417748196108 0.4758926639489353 0  0.1941883634852104 0.4521368671424885 0  0.1870032485370829 0.4290790225914928 0  0.177091205130642 0.4070553655912463 0  0.1645967731787313 0.3863870506537688 0  0.1497021496342202 0.3673754683518409 0  0.132624531648159 0.3502978503657798 0  0.113612949346231 0.3354032268212686 0  0.09294463440875361 0.322908794869358 0  0.07092097740850711 0.3129967514629171 0  0.04786313285751148 0.3058116365147896 0  0.02410733605106464 0.3014582251803892 0  0.6985417748196108 0.5241073360510646 0  0.7 0.5 0  0.6985417748196108 0.4758926639489353 0  0.6941883634852104 0.4521368671424885 0  0.6870032485370829 0.4290790225914928 0  0.677091205130642 0.4070553655912463 0  0.6645967731787312 0.3863870506537688 0  0.6497021496342201 0.3673754683518409 0  0.632624531648159 0.3502978503657798 0  0.613612949346231 0.3354032268212686 0  0.5929446344087537 0.322908794869358 0  0.5709209774085071 0.3129967514629171 0  0.5478631328575114 0.3058116365147896 0  0.5241073360510646 0.3014582251803892 0  0.4999999999999999 0.3 0  0.4758926639489353 0.3014582251803892 0  0.4521368671424885 0.3058116365147896 0  0.4290790225914928 0.3129967514629171 0  0.4070553655912462 0.3229087948693581 0  0.3863870506537688 0.3354032268212687 0  0.367375468351841 0.3502978503657798 0  0.3502978503657798 0.367375468351841 0  0.3354032268212687 0.3863870506537689 0  0.322908794869358 0.4070553655912464 0  0.3129967514629171 0.4290790225914929 0  0.3058116365147896 0.4521368671424885 0  0.3014582251803892 0.4758926639489354 0  0.3 0.4999999999999999 0  0.3014582251803892 0.5241073360510646 0  0.3058116365147896 0.5478631328575115 0  0.3129967514629171 0.5709209774085071 0  0.3229087948693581 0.5929446344087538 0  0.3354032268212687 0.6136129493462312 0  0.3502978503657798 0.632624531648159 0  0.367375468351841 0.6497021496342202 0  0.3863870506537689 0.6645967731787313 0  0.4070553655912463 0.677091205130642 0  0.4290790225914929 0.6870032485370829 0  0.4521368671424885 0.6941883634852104 0  0.4758926639489354 0.6985417748196108 0  0.4999999999999999 0.7 0  0.5241073360510646 0.6985417748196108 0  0.5478631328575116 0.6941883634852104 0  0.5709209774085071 0.6870032485370829 0  0.5929446344087537 0.677091205130642 0  0.6136129493462312 0.6645967731787312 0  0.6326245316481591 0.6497021496342202 0  0.6497021496342202 0.632624531648159 0  0.6645967731787312 0.6136129493462312 0  0.677091205130642 0.5929446344087537 0  0.6870032485370829 0.5709209774085071 0  0.6941883634852104 0.5478631328575115 0  0 0.15 0  1 0.15 0  1 0.85 0  0 0.8500000000000001 0  0 0.075 0  1 0.075 0  1 0.925 0  0 0.925 0  0.5 0.8127595604293815 0  0.5069440078039168 0.190422209288238 0  0.25 0.3127595604293815 0  0.756944007803917 0.3095777907117619 0  0.756944007803917 0.6904222092882382 0  0.25 0.6872404395706185 0  0 0.225 0  0.4255768646051012 0.2241073097134061 0  1 0.7749999999999999 0  0.6773391559270888 0.2766774022734219 0  1 0.225 0  0.6755768646051011 0.7241073097134062 0  0 0.7750000000000001 0  0.5818971135297744 0.2287925518358889 0  0.8318971135297746 0.728792551835889 0  0.1659156081861886 0.7301636995921477 0  0.08376842746533225 0.2299656297760495 0  0.4236002201977974 0.7746535834185855 0  0.0840843918138115 0.7698363004078523 0  0.3340843918138113 0.7301636995921477 0  0.3340843918138114 0.2698363004078523 0  0.9159156081861887 0.2301636995921477 0  0.5840843918138116 0.7698363004078522 0  0.1659156081861887 0.2698363004078523 0  0.9162315725346678 0.7700343702239506 0  0.8340843918138114 0.2698363004078523 0  0.75 0.6146645247768686 0  0.5 0.1125158665330878 0  0.75 0.3874841334669124 0  0.2504983345544904 0.6122915843562002 0  0.2504983345544902 0.3877084156437999 0  0.5 0.8879783056303169 0  0.7005361650220154 0.3333055947145943 0  0.70416808765371 0.6599554817221275 0  0.449930214263529 0.1678187287522426 0  0.2247310981387008 0.7415600637745463 0  0.5155081196221678 0.7563797802146907 0  0.2752689018612993 0.2584399362254537 0  0.05605196690611226 0.8246131191226815 0  0.9439480330938878 0.1
[...]
<PointData  Scalars="Temperature"> 
<DataArray  type="Float64"  Name="Temperature"  format="ascii">7.1444271354726382e+01  7.8486247110677354e+01  7.8469738262537433e+01  7.8315634544568070e+01  7.7883372470958761e+01  7.7207890675687125e+01  7.6299967079509472e+01  7.5167402290866264e+01  7.3823951185936735e+01  7.2254898887160167e+01  7.0421534725245962e+01  6.8346530050299705e+01  6.6088763432793698e+01  6.3694006915664190e+01  6.1209462068862649e+01  5.8701589606047953e+01  5.6191389065421433e+01  5.3690427539534952e+01  5.1265614095967450e+01  4.8906401190640530e+01  4.6716398765928531e+01  4.4745416949410334e+01  4.3041843041428521e+01  4.1689703578245606e+01  4.0669445915291135e+01  3.9973347230731740e+01  3.9531078889006153e+01  3.9302900169710547e+01  3.9233996790921083e+01  3.8647378848186634e+01  3.8588506436666073e+01  3.8396510023967096e+01  3.8019309322934014e+01  3.7422694149734873e+01  3.6553823323465494e+01  3.5429751351351456e+01  3.4101929594325561e+01  3.2623981513676746e+01  3.1080191622231425e+01  2.9560276824998581e+01  2.8137127711238008e+01  2.6862170892006240e+01  2.5756501484230757e+01  2.4816547129769877e+01  2.4028457854696164e+01  2.3384227656931717e+01  2.2854394249190520e+01  2.2428724034291932e+01  2.2094630915632994e+01  2.1832207543053620e+01  2.1629936593389150e+01  2.1473585305653664e+01  2.1356623693703966e+01  2.1273284219514483e+01  2.1221304575461819e+01  2.1203030329997279e+01  2.1199633332918349e+01  2.1992223555862203e+01  2.2041384110053961e+01  2.2183811023102997e+01  2.2408274771211296e+01  2.2690681099756880e+01  2.3000311098761340e+01  2.3293994448794795e+01  2.3537023763744003e+01  2.3692176188121209e+01  2.3746938790621453e+01  2.3682867070149985e+01  2.3530887726408125e+01  2.3316010388591600e+01  2.3073265502635689e+01  2.2834077807924672e+01  2.2608923270158154e+01  2.2396520312508496e+01  2.2194788030293665e+01  2.1991003393608437e+01  2.1783398024368136e+01  2.1579435420732938e+01  2.1379471731725236e+01  2.1198376478019267e+01  2.1044405680450733e+01  2.0928215947356954e+01  2.0856544891140786e+01  2.0831343674857038e+01  2.0413422741302963e+01  2.0414316205548815e+01  2.0423334219321394e+01  2.0448841243337203e+01  2.0489419357136555e+01  2.0545787235916997e+01  2.0619769178630108e+01  2.0713948416483984e+01  2.0832266408336601e+01  2.0978988789848653e+01  2.1159489212093472e+01  2.1376274426760531e+01  2.1626865124643704e+01  2.1915400219867418e+01  2.2235515174832535e+01  2.2596690958037968e+01  2.2991074254247955e+01  2.3414321811506255e+01  2.3846467224803412e+01  2.4267884389343628e+01  2.4638050342120611e+01  2.4941554569563710e+01  2.5140008583587562e+01  2.5246804557509652e+01  2.5264681778536126e+01  2.5228236949175411e+01  2.5185957482020523e+01  2.5167099852925517e+01  2.5331292778250617e+01  2.5407206488336200e+01  2.5620300484100408e+01  2.5976438805828938e+01  2.6494194086586713e+01  2.7198184236231828e+01  2.8078279452923002e+01  2.9134346186466626e+01  3.0320290189361280e+01  3.1610852692826075e+01  3.2917882735362404e+01  3.4163520048409445e+01  3.5285083834347752e+01  3.6206418618328676e+01  3.6909029999356612e+01  3.7370420985837676e+01  3.7619779378644488e+01  3.7677661167079705e+01  3.7573918020518001e+01  3.7353215274779174e+01  3.7039178744036164e+01  3.6659851488747840e+01  3.6255942138627525e+01  3.5867927973753126e+01  3.5536228626226446e+01  3.5313928035209990e+01  3.5225230789970993e+01  3.5224890962025761e+01  3.8657524695275505e+01  3.8685079475449598e+01  3.8770089223564447e+01  3.8910115022384765e+01  3.9113341374681610e+01  3.9396023435631903e+01  3.9794590118982086e+01  4.0355221718392762e+01  4.1128678972814939e+01  4.2140173148119970e+01  4.3432275487732277e+01  4.4981362903077724e+01  4.6755872664582427e+01  4.8661055854494791e+01  5.0626463449143699e+01  5.2592704365316138e+01  5.4554927551445616e+01  5.6549075211628661e+01  5.8633122358696113e+01  6.0790378321328362e+01  6.2995839650767827e+01  6.5153768649965301e+01  6.7176994796628321e+01  6.8939722235468736e+01  7.0281372107991601e+01  7.1142794381328173e+01  2.2971755874370025e+01  2.3218750390191754e+01  2.3539838767507657e+01  2.3942086864171809e+01  2.4440122168698689e+01  2.5068405139748887e+01  2.5865619742065579e+01  2.6856599395603201e+01  2.8075590526381053e+01  2.9491330850335604e+01  3.1102928425983219e+01  3.2896705671841872e+01  3.4824544565818258e+01  3.6872148902510133e+01  3.9010746513189446e+01  4.1228118774256892e+01  4.3469651270294129e+01  4.5703377555691574e+01  4.7818263602732586e+01  4.9743238154224443e+01  5.1305033868226097e+01  5.2440040045252786e+01  5.3032338529997119e+01  5.3063284637616206e+01  5.2503741831353032e+01  5.1446779224591296e+01  4.9972798398003000e+01  4.8213936439004478e+01  4.6321233603679900e+01  4.4405150867140193e+01  4.2547097006291139e+01  4.0724212914495510e+01  3.8980694930959196e+01  3.7283339473161462e+01  3.5617232592252115e+01  3.4003365572963268e+01  3.2427987874799022e+01  3.0957080114204491e+01  2.9589993234048428e+01  2.8368124422301481e+01  2.7279121899280202e+01  2.6329688645204779e+01  2.5503234429770561e+01  2.4803341897092338e+01  2.4202184573497444e+01  2.3702082411865447e+01  2.3303421525754153e+01  2.3004528414988538e+01  2.2807153591318823e+01  2.2710870152883029e+01  2.2711481136892857e+01  2.2801296762274827e+01  7.5176122503407029e+01  2.1584166663065645e+01  2.0607901378445643e+01  3.6901109830826996e+01  7.7484194156408094e+01  2.1316813975894256e+01  2.0471877003698690e+01  3.5770169031975833e+01  2.6567268993515867e+01  3.8638407687389616e+01  5.7313430282941674e+01  2.4988685184227407e+01  2.2213006707065212e+01  3.8295783533955444e+01  7.2752930059970595e+01  4.4156482089376702e+01  2.0751811415147579e+01  2.8043261574366870e+01  2.1849966970575601e+01  2.3139229500046316e+01  3.8047375794762374e+01  3.3900354517549147e+01  2.1515256450286188e+01  3.8481163308234521e+01  7.0711711776986462e+01  2.9477450856998466e+01  3.8157702384773295e+01  3.4229512330193451e+01  5.1779877419153600e+01  2.2236401442631180e+01  2.4841618896192834e+01  6.4407248985511174e+01  2.0924062269861544e+01  2.3457898941697870e+01  2.2416766011367169e+01  3.8990961392235519e+01  2.4376643802518057e+01  4.1365002171065669e+01  5.4909888492085329e+01  2.5856336616468234e+01  2.6193842917753905e+01  2.2681185700447003e+01  4.1648880886987946e+01  3.7467242822725829e+01  2.6556550484511448e+01  5.6265210874092546e+01  3.7368989416820675e+01  2.1814115445549405e+01  7.3604854166137713e+01  2.0721254210355536e+01  4.0143956845660213e+01  2.2462143032022833e+01  2.6092068963247076e+01  2.7769090548630341e+01  3.9472662965822856e+01  6.0610412885771545e+01  3.7000727390040552e+01  5.3705185039126818e+01  2.5321962362880690e+01  3.8955044207589857e+01  2.3741640976158607e+01  2.2758176796248090e+01  5.2107848843506424e+01  4.5279584472826841e+01  2.5243204289527860e+01  2.5423367503543535e+01  6.0462160500178612e+01  3.6155305762750103e+01  3.5904839207090902e+01  2.2042029033112772e+01  2.3836766431053050e+01  3.0669390469491457e+01  4.7582080739179830e+01  4.8931678744859333e+01  2.3817440298240335e+01  2.4170376677325404e+01  3.0344572070394705e+01  2.1925927167518910e+01  2.4503037280717965e+01  2.3199992173078233e+01  3.8938402708355987e+01  4.8830238475804663e+01  3.1693652893386663e+01  3.2164719500802590e+01  3.6857890745935933e+01  2.1185018103576315e+01  2.1185552913683072e+01  2.7793677929750043e+01  6.8340035290296541e+01  3.8416423754899768e+01  2.2569358018020431e+01  3.8044787276152071e+01  6.7182553935511379e+01  3.8717238048866434e+01  2.2023409646820721e+01  2.2833866897885663e+01  2.0855327595212977e+01  7.1296652695544921e+01  2.1567496524119285e+01  2.0583250714378945e+01  7.5663488982653121e+01  3.6661443912757470e+01  2.4010179002621733e+01  2.1832207294953562e+01  3.7411009407986398e+01  2.2631303784768310e+01  2.4618766306823971e+01  3.4842472101233909e+01  6.3976601146540801e+01  2.2168348998659056e+01  5.1144411336328879e+01  3.9269593859641063e+01  3.7642915006133236e+01  7.1598057862368009e+01  2.0891968626924548e+01  4.0841133513738150e+01  5.7625541713733917e+01  2.5809539498071324e+01  2.1546513321886874e+01  5.5178286701087252e+01  3.9151850342987728e+01  2.7885175277122119e+01  2.8202637752029776e+01  2.9626117637701604e+01  4.3283963423511551e+01  2.3382566867655257e+01  4.5253557285278625e+01  2.3136685030108783e+01  2.6700303988683938e+01  2.9186348451763457e+01  3.3795528884966409e+01  2.6319994221491648e+01  2.1596283741852218e+01  3.2813389575252124e+01  3.7726460811931176e+01  5.2424352629512853e+01  3.4384983913136097e+01  6.3609851793163138e+01  2.3247769650140697e+01  2.5090491350158306e+01  4.1044588765542336e+01  7.2582367665343114e+01  2.3593407660624813e+01  2.1929863616440095e+01  3.7924750956617537e+01  2.5893366976628137e+01  3.7496983305111762e+01  2.1724882269879160e+01  2.4151185704857319e+01  2.0694005818718814e+01  4.0563243918998523e+01  2.5014820953671990e+01  2.5214894603753766e+01  3.9541501936017866e+01  7.3922434206835874e+01  2.2471369874315172e+01  2.2618485445618880e+01  2.2288819288943476e+01  4.3316688967901989e+01  5.5221430839672443e+01  3.9813139748806805e+01  5.3702875043122781e+01  3.8667292081336662e+01  3.9581212737513120e+01  3.8384618211441193e+01  2.3857250266590739e+01  2.4398416074998945e+01  2.5369641487864509e+01  2.5417598862894661e+01  2.6001281735925524e+01  2.0683161234558355e+01  3.8475300579561420e+01  2.0535188621530402e+01  2.1943339738233846e+01  7.1835755576325681e+01  2.1230406173276535e+01  7.8222600693730030e+01  2.1441636747560093e+01  2.1399868596241795e+01  7.6412772737849920e+01  2.0428715491152609e+01  3.5376116141145282e+01  2.0806859219852612e+01  3.6305804977215210e+01  3.6080448013907400e+01  5.3091132108309147e+01  4.2882831889303361e+01  3.8435712303204518e+01  5.4299243479527689e+01  2.6730440286199265e+01  2.0999681212285846e+01  3.5998395723343165e+01  5.9829884155617258e+01  2.2116138911258030e+01  2.2214508331111343e+01  2.7730042148378480e+01  2.0777716918643911e+01  2.5593123794943299e+01  3.7876507962531029e+01  3.9741400122602421e+01  5.7062212106116426e+01  6.7142384285540501e+01  3.2151447320616960e+01  3.7604406379184141e+01  2.5046636808187280e+01  2.4449331509221675e+01  2.6011710586895866e+01  2.2964429377751785e+01  2.3031127285569170e+01  2.0509348046569368e+01  7.6860785579997327e+01  6.9563996194018884e+01  2.1788713195032116e+01  3.7030133295027980e+01  5.9785298990301989e+01  2.2903664078862850e+01  3.5745774161167503e+01  2.2554872104503641e+01  2.2243646149355701e+01  2.6203076631706924e+01  4.6425074627803482e+01  2.3601750915876000e+01  3.0498159924999516e+01  7.7857067513651430e+01  2.1294981971444674e+01  2.0450369257784676e+01  3.5570392812388739e+01  3.0947314815248919e+01  2.2704579207210880e+01  4.2161763898158021e+01  3.7005467106086378e+01  3.7215392161532684e+01  2.1748885445297184e+01  2.1682313784986253e+01  3.2818456876770128e+01  7.3304337836438222e+01  7.2209563719059403e+01  7.4395272008908947e+01  4.3305122341295444e+01  4.2789559647194977e+01  6.9850163974983133e+01  2.7472439345906128e+01  3.9109996720256596e+01  3.7757005006532481e+01  2.2554235482801161e+01  2.7187565575138652e+01  2.5204172920378099e+01  4.7595576335256290e+01  2.3887018441029358e+01  2.0644993841621595e+01  2.2790398755705283e+01  2.2465051109079397e+01  3.4404320659832202e+01  2.5253104783908498e+01  2.3485010047738495e+01  3.9130888840776059e+01  3.8757813775397914e+01  2.3403221528965236e+01  2.3693609090207666e+01  5.0367862826123698e+01  5.1560739011378928e+01  2.7060096903328301e+01  2.1325384670256646e+01  2.5451586416156157e+01  3.0328111733875215e+01  5.3845812859161207e+01  3.3281415420449655e+01  6.2118730478172061e+01  3.5745894754743802e+01  3.6839641023549980e+01  3.8188730868662560e+01  5.5218247445467654e+01  5.7930226618802173e+01  3.7554185648221086e+01  2.5069936596958822e+01  2.5153264051853714e+01  5.5406325760820643e+01  3.8930266512151732e+01  5.3165533956495366e+01  6.1701691483971317e+01  3.6531511579136357e+01  4.0335457155812279e+01  2.5882258274666100e+01  2.2994670979181347e+01  2.2971422410166184e+01  4.7325440737382351e+01  4.7125394755009545e+01  6.6331661511201347e+01  2.2841702910896448e+01  2.2692299244264550e+01  2.2350047356781058e+01  4.5650320231053563e+01  2.3533612329419821e+01  2.6648718842703847e+01  4.5361006721602926e+01  2.7574826594069258e+01  2.8459603852612474e+01  2.5643471028099693e+01  4.0109218738055588e+01  3.9371034949028662e+01  2.6737553657395964e+01  2.9041235800049098e+01  2.0810204562207893e+01  6.9422232922219337e+01  2.3722807009452172e+01  3.6105763408068242e+01  2.1258990062920311e+01  2.1054188044152326e+01  2.4333642377726104e+01  2.3640523767070107e+01  2.3076087797272301e+01  3.7794507663662309e+01  4.8873561444846636e+01  5.0071863061285732e+01  2.4113840522750756e+01  2.4347931648046451e+01  3.1196364501398687e+01  3.4337118783405145e+01  3.8451726132751872e+01  3.2305401033713281e+01  2.2556146516286720e+01  2.2551259051934249e+01  2.2042509242136777e+01  3.7739889725133793e+01  3.5824320182991272e+01  2.0413863838198111e+01  2.1201238890806881e+01  7.8479309080624475e+01  3.5224105861957902e+01  4.0110788244917238e+01  3.1932071901803191e+01  4.9768296241680559e+01  2.8632828130172101e+01  2.3418371024312950e+01  2.2917763373173035e+01  3.8550051668831181e+01  3.9365298404718956e+01  5.3681579041520934e+01  2.4233077090923235e+01  2.1375965225276882e+01  2.1259765720704518e+01  2.1074410694616372e+01  2.1391238846706845e+01  2.4555584479051532e+01  5.0383255393398237e+01  4.2128942845552828e+01  2.5286818893014505e+01  2.5187211350829237e+01  2.5630924568099068e+01  2.4178429079952519e+01  2.2641843646297620e+01  4.5301503365554296e+01  4.4641467478587984e+01  6.5571989833061565e+01  5.2552887015886945e+01  3.0752848625180462e+01  6.9034421441704751e+01  3.9083916970430728e+01  3.3068460341969768e+01  2.4078590988927878e+01  7.2219969074555948e+01  4.1867492822762486e+01  2.2011323345642584e+01  2.2094688548537132e+01  2.0776037975584075e+01  3.8386495066848447e+01  6.2652577375071097e+01  3.5200666612271228e+01  3.8122184004675951e+01  3.8411856080219394e+01  3.8239142439983276e+01  4.9595449276317176e+01  2.3347564220636389e+01  7.4545358570549809e+01  2.1004624136802850e+01  5.3369575953649104e+01  2.9560711026499554e+01  3.7786239747638447e+01  2.1788584891029103e+01  2.2240145618335681e+01  2.7358239188492703e+01  5.2073604385740545e+01  2.4840444503913169e+01  5.9615240188446300e+01  2.3628748926573813e+01  2.0791125936005830e+01  3.8897179236842092e+01  2.9370507847023617e+01  5.1803188865888401e+01  2.2377575806356788e+01  3.8978651982353121e+01  2.1233711343741678e+01  3.5331672629317538e+01  7.8296166453222284e+01  2.0424362087705290e+01  3.6737843087945997e+01  2.4465038352441567e+01  2.1140122266741876e+01  2.3208663724484090e+01  3.8819568965459972e+01  2.8854417703215116e+01  2.2278283633373974e+01  2.4631801500733459e+01  7.0500442893743738e+01  3.9709944086877385e+01  3.8473795128887424e+01  3.8118876373050185e+01  2.3949083814715173e+01  3.1986005568668844e+01  3.3590233661487460e+01  3.8646558644568664e+01  2.2084724889455810e+01  3.8142779424241937e+01  2.3856941452736617e+01  3.7308849953020598e+01  5.7472752285891588e+01  4.1601796338364721e+01  2.1822149408556378e+01  5.8827723292673312e+01  2.6875721237414574e+01  2.1682573014667973e+01  2.2175022293184956e+01  2.2097165830519565e+01  2.5741333600623133e+01  2.5724336503679602e+01  2.0853055074153129e+01  3.8171506763311747e+01  6.2091043912863661e+01  3.4833032429989878e+01  2.6311144563643129e+01  2.2688384281200591e+01  4.1121031653341952e+01  3.7918679140342036e+01  2.0718814821908961e+01  5.6070504818711655e+01  3.7917670087227457e+01  3.8738665112757744e+01  2.5303360748814896e+01  3.9143735461224573e+01  3.7488115140704991e+01  6.4879284875638888e+01  2.1974778015066601e+01  3.7361915749722854e+01  3.8386054719600182e+01  2.2083803572989769e+01  2.1902652556248245e+01  2.1905442709375091e+01  2.0789076843731880e+01  7.3517877344584193e+01  3.1759795103730205e+01  5.6906713144025062e+01  2.5552386197635055e+01  3.8450689308373036e+01  3.5292952131522547e+01  3.0737426987516088e+01  4.2130739571221149e+01  5.4023087722367713e+01  5.8578708305967787e+01  2.2863668400057779e+01  3.6371283184757750e+01  2.1544024974210064e+01  2.1494812423963573e+01  3.9919306529681137e+01  2.8675282849905464e+01  6.8162357204377741e+01  2.2520074486347045e+01  6.5931042684034736e+01  6.7501124230470182e+01  2.0916236714948184e+01  2.0837460540724578e+01  7.1424130191409418e+01  7.1615921506910041e+01  4.7882285743375107e+01  2.8678787262583263e+01  2.4148734103040105e+01  2.4113161416637968e+01  2.8779393404587054e+01  2.7205538089266089e+01  2.5309639257040125e+01  2.0669757280315395e+01  2.5447090541052134e+01  3.0576643188492167e+01  5.4080270385808319e+01  5.0669101714021146e+01  2.3949633989988410e+01  2.3465958518039358e+01  2.5313110751461451e+01  2.8231683999748316e+01  2.2466569566785900e+01  5.3226836318453607e+01  4.0281392885376619e+01  3.7592079577365269e+01  4.1332579581791684e+01  4.0798952942452608e+01  5.6346595415126970e+01  2.0570671564669482e+01  7.5805529947015543e+01  7.5248844663116898e+01  7.5301529797934549e+01  2.0626743037278942e+01  2.0547528498882969e+01  2.1475639319068510e+01  3.7283590106470832e+01  2.1814064469107738e+01  4.3697585525128616e+01  2.2304000955198919e+01  2.1686341255763487e+01  2.1585176282090369e+01  3.7030339151574722e+01  3.6601724365764611e+01  3.6830895796285390e+01  2.5289750169723426e+01  7.6267767200016451e+01  3.6385638822442878e+01  2.1470895640641931e+01  2.0987700890604760e+01  3.6790580904702026e+01  2.6460799785895706e+01  3.4980410341730867e+01  5.5711642961569872e+01  4.0197200220921992e+01  2.1976236004081638e+01  3.8608152774669016e+01  2.2856132275136790e+01  2.1925969541563994e+01  2.2014612591902228e+01  2.1627409573536458e+01  6.1387956420898000e+01  2.6287549015761247e+01  7.1040269264092530e+01  2.1729869403140768e+01  3.7579221575607185e+01  2.2282300523935337e+01  4.2073381789117860e+01  3.6841713230068834e+01  2.0594483600578986e+01  2.7119766222645175e+01  7.0767543776905583e+01  2.2376977023489573e+01  2.1206437775986529e+01  2.3770426081596582e+01  5.0741529009696734e+01  3.5413327253055904e+01  2.3176814649098677e+01  2.7160857782679436e+01  2.5436979263011057e+01  2.4708163145872174e+01  6.2400813523062702e+01  4.8896111558814631e+01  3.3593176907531486e+01  2.5410918060125852e+01  2.3221502346918058e+01  2.4679043674266698e+01  2.5721015074662301e+01  2.5962792404039789e+01  3.7567769987605928e+01  3.9403780401057780e+01  3.4505730922069546e+01  2.1983428725415742e+01  3.8559363770660809e+01  2.2415898994785628e+01  5.6390906869125722e+01  3.8919228711732146e+01  3.9736120261365009e+01  3.9600927950590851e+01  4.1176862118072570e+01  2.3672311205477687e+01  2.9971141077643544e+01  2.2719639024522529e+01  2.2839874817506278e+01  2.2575474437315201e+01  2.7006544360935230e+01  2.0857498135492065e+01  2.1966890040861934e+01  2.8514780051558077e+01  7.1150634937827377e+01  7.2709141882844236e+01  6.5462935427121394e+01  2.7716431918865208e+01  3.5810937101210122e+01  3.4711304781345504e+01  2.3809694461741927e+01  2.4493495069735484e+01  6.3418901249317607e+01  5.0702911997029751e+01  2.0899324875120740e+01  4.1663640848028386e+01  4.3730378739020772e+01  2.3145903474803809e+01  6.1216468842841991e+01  2.3561697304748105e+01  4.4341456653177659e+01  2.3296007327378600e+01  4.4757785871221792e+01  2.9333054705966067e+01  2.9990747454519294e+01  2.4958106187373428e+01  5.2423676070904833e+01  2.5120701026020306e+01  2.3181603396084256e+01  2.5149413788563809e+01  2.4667473885575379e+01  5.2491477252140115e+01  2.6128514316911478e+01  2.8001518253071993e+01  4.6786885378841568e+01  2.8467386242790518e+01  2.2993902357741248e+01  4.3959044184336257e+01  2.0544751427705013e+01  7.6050640730238072e+01  4.107