<?xml version="1.0"?>
<VTKFile type="UnstructuredGrid"  version="0.1"  >
<UnstructuredGrid>
<Piece  NumberOfPoints="2331" NumberOfCells="4248">
<Points>
<DataArray  type="Float64"  NumberOfComponents="3"  format="ascii">0 0.3 0  0 0 0  0.04999999999999999 0 0  0.0514582251803892 0.02410733605106462 0  0.0558116365147896 0.04786313285751154 0  0.06299675146291706 0.07092097740850717 0  0.07290879486935808 0.09294463440875382 0  0.08540322682126872 0.1136129493462312 0  0.1002978503657798 0.132624531648159 0  0.117375468351841 0.1497021496342203 0  0.1363870506537689 0.1645967731787313 0  0.1570553655912463 0.177091205130642 0  0.1790790225914929 0.187003248537083 0  0.2021368671424885 0.1941883634852104 0  0.2258926639489354 0.1985417748196108 0  0.25 0.2 0  0.2741073360510646 0.1985417748196108 0  0.2978631328575116 0.1941883634852104 0  0.3209209774085071 0.187003248537083 0  0.3429446344087537 0.177091205130642 0  0.3636129493462312 0.1645967731787313 0  0.3826245316481591 0.1497021496342202 0  0.3997021496342202 0.132624531648159 0  0.4145967731787313 0.1136129493462312 0  0.427091205130642 0.09294463440875371 0  0.4370032485370829 0.07092097740850713 0  0.4441883634852104 0.04786313285751155 0  0.4485417748196108 0.02410733605106461 0  0.45 0 0  0.55 0 0  0.5514582251803892 0.02410733605106462 0  0.5558116365147896 0.04786313285751154 0  0.5629967514629171 0.07092097740850717 0  0.5729087948693581 0.09294463440875382 0  0.5854032268212688 0.1136129493462312 0  0.6002978503657798 0.132624531648159 0  0.617375468351841 0.1497021496342203 0  0.6363870506537689 0.1645967731787313 0  0.6570553655912463 0.177091205130642 0  0.6790790225914929 0.187003248537083 0  0.7021368671424885 0.1941883634852104 0  0.7258926639489354 0.1985417748196108 0  0.75 0.2 0  0.7741073360510646 0.1985417748196108 0  0.7978631328575116 0.1941883634852104 0  0.8209209774085071 0.187003248537083 0  0.8429446344087537 0.177091205130642 0  0.8636129493462312 0.1645967731787313 0  0.8826245316481591 0.1497021496342202 0  0.8997021496342202 0.132624531648159 0  0.9145967731787312 0.1136129493462312 0  0.927091205130642 0.09294463440875371 0  0.9370032485370829 0.07092097740850713 0  0.9441883634852104 0.04786313285751155 0  0.9485417748196108 0.02410733605106461 0  0.95 0 0  1 0 0  1 0.3 0  0.9758926639489353 0.3014582251803892 0  0.9521368671424885 0.3058116365147896 0  0.9290790225914928 0.3129967514629171 0  0.9070553655912461 0.3229087948693581 0  0.8863870506537688 0.3354032268212687 0  0.867375468351841 0.3502978503657798 0  0.8502978503657798 0.367375468351841 0  0.8354032268212687 0.3863870506537689 0  0.822908794869358 0.4070553655912464 0  0.8129967514629171 0.4290790225914929 0  0.8058116365147896 0.4521368671424885 0  0.8014582251803892 0.4758926639489354 0  0.8 0.4999999999999999 0  0.8014582251803892 0.5241073360510646 0  0.8058116365147896 0.5478631328575115 0  0.8129967514629171 0.5709209774085071 0  0.8229087948693581 0.5929446344087538 0  0.8354032268212688 0.6136129493462312 0  0.8502978503657798 0.632624531648159 0  0.867375468351841 0.6497021496342202 0  0.8863870506537689 0.6645967731787313 0  0.9070553655912463 0.677091205130642 0  0.9290790225914929 0.6870032485370829 0  0.9521368671424885 0.6941883634852104 0  0.9758926639489354 0.6985417748196108 0  1 0.7 0  1 1 0  0.95 1 0  0.9485417748196108 0.9758926639489353 0  0.9441883634852104 0.9521368671424885 0  0.9370032485370829 0.9290790225914928 0  0.927091205130642 0.9070553655912463 0  0.9145967731787312 0.8863870506537688 0  0.8997021496342201 0.8673754683518409 0  0.882624531648159 0.8502978503657798 0  0.863612949346231 0.8354032268212686 0  0.8429446344087537 0.822908794869358 0  0.8209209774085071 0.8129967514629171 0  0.7978631328575114 0.8058116365147896 0  0.7741073360510646 0.8014582251803892 0  0.75 0.8 0  0.7258926639489353 0.8014582251803892 0  0.7021368671424885 0.8058116365147896 0  0.6790790225914928 0.8129967514629171 0  0.6570553655912461 0.8229087948693581 0  0.6363870506537688 0.8354032268212688 0  0.617375468351841 0.8502978503657798 0  0.6002978503657798 0.867375468351841 0  0.5854032268212687 0.8863870506537689 0  0.572908794869358 0.9070553655912463 0  0.5629967514629171 0.9290790225914929 0  0.5558116365147896 0.9521368671424885 0  0.5514582251803892 0.9758926639489355 0  0.55 0.9999999999999999 0  0.45 0.9999999999999999 0  0.4485417748196108 0.9758926639489353 0  0.4441883634852104 0.9521368671424885 0  0.4370032485370829 0.9290790225914928 0  0.427091205130642 0.9070553655912463 0  0.4145967731787313 0.8863870506537688 0  0.3997021496342201 0.8673754683518409 0  0.382624531648159 0.8502978503657798 0  0.363612949346231 0.8354032268212686 0  0.3429446344087536 0.822908794869358 0  0.3209209774085071 0.8129967514629171 0  0.2978631328575115 0.8058116365147896 0  0.2741073360510646 0.8014582251803892 0  0.25 0.8 0  0.2258926639489353 0.8014582251803892 0  0.2021368671424885 0.8058116365147896 0  0.1790790225914928 0.8129967514629171 0  0.1570553655912462 0.8229087948693581 0  0.1363870506537688 0.8354032268212688 0  0.117375468351841 0.8502978503657798 0  0.1002978503657797 0.867375468351841 0  0.08540322682126869 0.8863870506537689 0  0.07290879486935797 0.9070553655912463 0  0.06299675146291703 0.9290790225914929 0  0.05581163651478957 0.9521368671424885 0  0.0514582251803892 0.9758926639489355 0  0.04999999999999999 0.9999999999999999 0  0 1 0  -0 0.7000000000000001 0  0.0241073360510646 0.6985417748196108 0  0.04786313285751161 0.6941883634852104 0  0.07092097740850711 0.6870032485370829 0  0.09294463440875372 0.677091205130642 0  0.1136129493462312 0.6645967731787312 0  0.1326245316481591 0.6497021496342202 0  0.1497021496342202 0.632624531648159 0  0.1645967731787313 0.6136129493462312 0  0.177091205130642 0.5929446344087537 0  0.187003248537083 0.5709209774085071 0  0.1941883634852104 0.5478631328575115 0  0.1985417748196108 0.5241073360510646 0  0.2 0.5 0  0.1985417748196108 0.4758926639489353 0  0.1941883634852104 0.4521368671424885 0  0.1870032485370829 0.4290790225914928 0  0.177091205130642 0.4070553655912463 0  0.1645967731787313 0.3863870506537688 0  0.1497021496342202 0.3673754683518409 0  0.132624531648159 0.3502978503657798 0  0.113612949346231 0.3354032268212686 0  0.09294463440875361 0.322908794869358 0  0.07092097740850711 0.3129967514629171 0  0.04786313285751148 0.3058116365147896 0  0.02410733605106464 0.3014582251803892 0  0.6985417748196108 0.5241073360510646 0  0.7 0.5 0  0.6985417748196108 0.4758926639489353 0  0.6941883634852104 0.4521368671424885 0  0.6870032485370829 0.4290790225914928 0  0.677091205130642 0.4070553655912463 0  0.6645967731787312 0.3863870506537688 0  0.6497021496342201 0.3673754683518409 0  0.632624531648159 0.3502978503657798 0  0.613612949346231 0.3354032268212686 0  0.5929446344087537 0.322908794869358 0  0.5709209774085071 0.3129967514629171 0  0.5478631328575114 0.3058116365147896 0  0.5241073360510646 0.3014582251803892 0  0.4999999999999999 0.3 0  0.4758926639489353 0.3014582251803892 0  0.4521368671424885 0.3058116365147896 0  0.4290790225914928 0.3129967514629171 0  0.4070553655912462 0.3229087948693581 0  0.3863870506537688 0.3354032268212687 0  0.367375468351841 0.3502978503657798 0  0.3502978503657798 0.367375468351841 0  0.3354032268212687 0.3863870506537689 0  0.322908794869358 0.4070553655912464 0  0.3129967514629171 0.4290790225914929 0  0.3058116365147896 0.4521368671424885 0  0.3014582251803892 0.4758926639489354 0  0.3 0.4999999999999999 0  0.3014582251803892 0.5241073360510646 0  0.3058116365147896 0.5478631328575115 0  0.3129967514629171 0.5709209774085071 0  0.3229087948693581 0.5929446344087538 0  0.3354032268212687 0.6136129493462312 0  0.3502978503657798 0.632624531648159 0  0.367375468351841 0.6497021496342202 0  0.3863870506537689 0.6645967731787313 0  0.4070553655912463 0.677091205130642 0  0.4290790225914929 0.6870032485370829 0  0.4521368671424885 0.6941883634852104 0  0.4758926639489354 0.6985417748196108 0  0.4999999999999999 0.7 0  0.5241073360510646 0.6985417748196108 0  0.5478631328575116 0.6941883634852104 0  0.5709209774085071 0.6870032485370829 0  0.5929446344087537 0.677091205130642 0  0.6136129493462312 0.6645967731787312 0  0.6326245316481591 0.6497021496342202 0  0.6497021496342202 0.632624531648159 0  0.6645967731787312 0.6136129493462312 0  0.677091205130642 0.5929446344087537 0  0.6870032485370829 0.5709209774085071 0  0.6941883634852104 0.5478631328575115 0  0 0.15 0  1 0.15 0  1 0.85 0  0 0.8500000000000001 0  0 0.075 0  1 0.075 0  1 0.925 0  0 0.925 0  0.5 0.8127595604293815 0  0.5069440078039168 0.190422209288238 0  0.25 0.3127595604293815 0  0.756944007803917 0.3095777907117619 0  0.756944007803917 0.6904222092882382 0  0.25 0.6872404395706185 0  0 0.225 0  0.4255768646051012 0.2241073097134061 0  1 0.7749999999999999 0  0.6773391559270888 0.2766774022734219 0  1 0.225 0  0.6755768646051011 0.7241073097134062 0  0 0.7750000000000001 0  0.5818971135297744 0.2287925518358889 0  0.8318971135297746 0.728792551835889 0  0.1659156081861886 0.7301636995921477 0  0.08376842746533225 0.2299656297760495 0  0.4236002201977974 0.7746535834185855 0  0.0840843918138115 0.7698363004078523 0  0.3340843918138113 0.7301636995921477 0  0.3340843918138114 0.2698363004078523 0  0.9159156081861887 0.2301636995921477 0  0.5840843918138116 0.7698363004078522 0  0.1659156081861887 0.2698363004078523 0  0.9162315725346678 0.7700343702239506 0  0.8340843918138114 0.2698363004078523 0  0.75 0.6146645247768686 0  0.5 0.1125158665330878 0  0.75 0.3874841334669124 0  0.2504983345544904 0.6122915843562002 0  0.2504983345544902 0.3877084156437999 0  0.5 0.8879783056303169 0  0.7005361650220154 0.3333055947145943 0  0.70416808765371 0.6599554817221275 0  0.449930214263529 0.1678187287522426 0  0.2247310981387008 0.7415600637745463 0  0.5155081196221678 0.7563797802146907 0  0.2752689018612993 0.2584399362254537 0  0.05605196690611226 0.8246131191226815 0  0.9439480330938878 0.1
[...]
<PointData  Scalars="Temperature"> 
<DataArray  type="Float64"  Name="Temperature"  format="ascii">8.5412423096975800e+01  8.7602028381299547e+01  8.7598410594282328e+01  8.7548537973185589e+01  8.7409068642009331e+01  8.7192145286131790e+01  8.6901922037253442e+01  8.6541299442450736e+01  8.6113608273788287e+01  8.5612399980783067e+01  8.5023327021295657e+01  8.4352621643970025e+01  8.3619106926344543e+01  8.2838126417961092e+01  8.2024224979843552e+01  8.1196852002445652e+01  8.0357402943069886e+01  7.9502202146781570e+01  7.8648088407002945e+01  7.7791303564985924e+01  7.6974630759012086e+01  7.6227180537291872e+01  7.5580204355948624e+01  7.5076566438067658e+01  7.4712914785268680e+01  7.4484550852351916e+01  7.4356068632638696e+01  7.4300477649658632e+01  7.4285969641988871e+01  7.4131908108235251e+01  7.4091602997901063e+01  7.3965254298865048e+01  7.3725503937465859e+01  7.3348891717410666e+01  7.2799999159603843e+01  7.2076084627558032e+01  7.1189790046091531e+01  7.0170696816565254e+01  6.9064343417769763e+01  6.7933918646778920e+01  6.6841901990648637e+01  6.5839805177745689e+01  6.4957038302698678e+01  6.4202011821507938e+01  6.3568312627192384e+01  6.3049215329771378e+01  6.2617982142986477e+01  6.2263620361550913e+01  6.1974793931404058e+01  6.1736022279284498e+01  6.1540545284807571e+01  6.1379137122239342e+01  6.1250650977527357e+01  6.1154983841299270e+01  6.1093490060922761e+01  6.1071536553097367e+01  6.1069753960401997e+01  6.1951762311315584e+01  6.1986750305316448e+01  6.2086720457322549e+01  6.2237236346085560e+01  6.2410678516377438e+01  6.2570819778653302e+01  6.2670557694118180e+01  6.2664455010896177e+01  6.2515841619555736e+01  6.2209570117737215e+01  6.1718065104022536e+01  6.1079623078091679e+01  6.0330261562704024e+01  5.9525606355205312e+01  5.8724964867632977e+01  5.7972883649905022e+01  5.7274623719819424e+01  5.6635600521070529e+01  5.6028235408269701e+01  5.5443344710545617e+01  5.4885681877985178e+01  5.4350009491472022e+01  5.3864498356321505e+01  5.3449604047124382e+01  5.3133712346604071e+01  5.2938223780074388e+01  5.2869566220256168e+01  5.1370401319799399e+01  5.1372705058785321e+01  5.1406571401150011e+01  5.1501576995214258e+01  5.1649503011188443e+01  5.1848247988659779e+01  5.2095563979013285e+01  5.2391835781842538e+01  5.2741604426694941e+01  5.3147583479283064e+01  5.3614829528578063e+01  5.4136561739272864e+01  5.4695161059414872e+01  5.5287542094603111e+01  5.5890556111543027e+01  5.6518425656609701e+01  5.7162994230938999e+01  5.7821072562977101e+01  5.8479029012980490e+01  5.9119726685604824e+01  5.9697542989449161e+01  6.0202860450360511e+01  6.0590819099071567e+01  6.0872470416838205e+01  6.1043090601659685e+01  6.1131582607432527e+01  6.1170421755795012e+01  6.1179617098565650e+01  6.1305256528480740e+01  6.1343793892501395e+01  6.1457587736315446e+01  6.1664387127970834e+01  6.1989398636485866e+01  6.2463993911630723e+01  6.3082987261336868e+01  6.3844918499643768e+01  6.4711839238919140e+01  6.5655220712780974e+01  6.6608057951078266e+01  6.7511834766302769e+01  6.8330438802217259e+01  6.9016524128230628e+01  6.9572824310344970e+01  6.9997856703863803e+01  7.0316111090185643e+01  7.0549486691570522e+01  7.0721394125016062e+01  7.0849711128498043e+01  7.0946466264603444e+01  7.1020054455537107e+01  7.1078280841850287e+01  7.1122686260636087e+01  7.1155578982604780e+01  7.1175602091258853e+01  7.1183138749050258e+01  7.1183382068629385e+01  7.0941013146565595e+01  7.0932484994195775e+01  7.0910804764646898e+01  7.0886523775973899e+01  7.0877885471038283e+01  7.0912696667473156e+01  7.1026290426437413e+01  7.1255624810519109e+01  7.1639655384251171e+01  7.2195420155456773e+01  7.2939577718238326e+01  7.3851888665846971e+01  7.4897588719154811e+01  7.6004674147767702e+01  7.7111137320195525e+01  7.8162789092332872e+01  7.9137282910962071e+01  8.0039851642959277e+01  8.0900435810766155e+01  8.1729981193028209e+01  8.2532589547052268e+01  8.3289219666352722e+01  8.3982201829686176e+01  8.4577392247783322e+01  8.5025844705803280e+01  8.5312191713028810e+01  5.8844483966054774e+01  5.9624962899091123e+01  6.0477412158574410e+01  6.1366149705233205e+01  6.2272215217821326e+01  6.3200668149323434e+01  6.4174850512516016e+01  6.5216793996281325e+01  6.6345051619118763e+01  6.7531165683241525e+01  6.8762061532845649e+01  7.0017421306609364e+01  7.1250836765285655e+01  7.2448098183856942e+01  7.3596640340848452e+01  7.4689133081063076e+01  7.5712974420636598e+01  7.6665469684331967e+01  7.7518645421122017e+01  7.8247049329319395e+01  7.8790284678613389e+01  7.9125946267549651e+01  7.9210982114199510e+01  7.9032489602166450e+01  7.8575877574886178e+01  7.7876446647982604e+01  7.6967171032437548e+01  7.5906770311944697e+01  7.4775385691797155e+01  7.3634997327200608e+01  7.2528326291088035e+01  7.1436186605955683e+01  7.0374736751512643e+01  6.9314591968103954e+01  6.8233032278140442e+01  6.7138191699729347e+01  6.6020820757720301e+01  6.4927969843951672e+01  6.3858323375638157e+01  6.2846287976445701e+01  6.1885621358657708e+01  6.0984485790493444e+01  6.0141395381214160e+01  5.9374916982261112e+01  5.8684465025837355e+01  5.8101722383714517e+01  5.7657636385253639e+01  5.7372570568591691e+01  5.7276774462160056e+01  5.7383188339056645e+01  5.7693437263301853e+01  5.8190834334721906e+01  8.6542987893760653e+01  6.1524384858847128e+01  5.2090975170246729e+01  7.1036097255508963e+01  8.7277527227552312e+01  6.1212154132953053e+01  5.1591179038888299e+01  7.1136503584839872e+01  6.1648761125011333e+01  7.3622604625611274e+01  8.0703787718143559e+01  6.3993191029890049e+01  5.6085050363005941e+01  7.0074278433221835e+01  8.5798508725214035e+01  7.6009539417135429e+01  5.2600940484278851e+01  6.6587934519908174e+01  6.1814734429676044e+01  5.7387789947626892e+01  7.0961616259378175e+01  7.0860539287495072e+01  5.4568906324065651e+01  7.0514565761819995e+01  8.5132456825894664e+01  6.3948447495496929e+01  7.0845411179474013e+01  6.7414699996039303e+01  7.8911430140113268e+01  6.2118357424717409e+01  5.9630474724560081e+01  8.3061625287054000e+01  5.3065560139313867e+01  6.3014681677861496e+01  5.6929902121661051e+01  7.4031662279911700e+01  6.2715947706416927e+01  7.1791734897230270e+01  7.9583240961213448e+01  6.1425562243663599e+01  6.4792638084938062e+01  5.6936410681039739e+01  7.5016759662880503e+01  6.9781204853832648e+01  6.1351210243487017e+01  8.0406184815671949e+01  7.0958278577675031e+01  6.1744347265362755e+01  8.6047321683168079e+01  5.2464944431123143e+01  7.4222080516139769e+01  5.6339392269938543e+01  6.5134186215664627e+01  6.2762577556699362e+01  7.0811491292629327e+01  8.1740429254349621e+01  6.9184750638104674e+01  7.9556965041919071e+01  6.0469207389907581e+01  7.4161026392595815e+01  6.1258910415351878e+01  5.8290138208033881e+01  7.8068327203529037e+01  7.4092336412372177e+01  6.1241142503854348e+01  6.1294352962899829e+01  8.1774330545628956e+01  6.8797613373039511e+01  7.2247005313575670e+01  5.5998058896335237e+01  6.3054238624823320e+01  6.8685768313259217e+01  7.7392458679776482e+01  7.7841845420612401e+01  5.8351496324951832e+01  5.8701668203554526e+01  6.8294505179987496e+01  5.5402359470607792e+01  6.3886508022155041e+01  5.9747289711294457e+01  7.4209787407026923e+01  7.6186398994036026e+01  6.5655269396943311e+01  6.5892577638836215e+01  7.2571580191307419e+01  5.3720033825134941e+01  5.3792914706448791e+01  6.2553256121467498e+01  8.4367131265453708e+01  7.0925418427945502e+01  6.2359044229253648e+01  7.0614574732199614e+01  8.3976829491108532e+01  7.0785535036813130e+01  6.1963333547550988e+01  6.2591431151943574e+01  5.2914441937395033e+01  8.5343297502991220e+01  6.1490795760443355e+01  5.1988481654804687e+01  8.6697096201903960e+01  7.1042511627949537e+01  6.2770199401794521e+01  5.5355631972863819e+01  7.3223107917055216e+01  5.6700412416339702e+01  5.9543892871701345e+01  6.7749484195798871e+01  8.2893773745390462e+01  6.2049706257137451e+01  7.8728151120624730e+01  7.0821690258350401e+01  7.0833328122413036e+01  8.5405182141309425e+01  5.2931680739870352e+01  7.1488490484011052e+01  8.0588662219871765e+01  6.1155339351080400e+01  5.4744803962543948e+01  7.9922272451587020e+01  7.0508594410951119e+01  6.6596069073393451e+01  6.6552616634000245e+01  6.4163258005434145e+01  7.5637254199817804e+01  5.7722475814577038e+01  7.6433250764017259e+01  5.7382127273673341e+01  6.2062961971397002e+01  6.3599165513936612e+01  7.0665306895167646e+01  6.5147694543242849e+01  5.4668059079826847e+01  7.0250381052056923e+01  7.0151464352962208e+01  7.9086123690170865e+01  6.7618305369908228e+01  8.2810029102033582e+01  6.2755375281627252e+01  5.9758941065677213e+01  7.4702466639882104e+01  8.5735715019159869e+01  6.3194828743604738e+01  6.1869699107150154e+01  7.0933770491599290e+01  6.0879392426312521e+01  7.0992385854959750e+01  6.1681551174464673e+01  6.3480181651594528e+01  5.2347432786500171e+01  7.4642539404736453e+01  6.3696484739357366e+01  6.3566046232313390e+01  7.4154631412668238e+01  8.6153884654962013e+01  5.7386620466966050e+01  5.7359932060426161e+01  5.6422559448146252e+01  7.2902381998799186e+01  7.9526882964408955e+01  7.0886293880683567e+01  7.9356431300797581e+01  7.0876038328291983e+01  7.4334620774311290e+01  7.3861601825848666e+01  6.1916475407658297e+01  6.2376876895612881e+01  6.0874886305517911e+01  6.1165070402380124e+01  6.1638200643015317e+01  5.2359942544760735e+01  7.0946033235160513e+01  5.1825872195091158e+01  6.1908165650184102e+01  8.5526063959810628e+01  6.1107548843631115e+01  8.7516370527708077e+01  6.1359978294388306e+01  6.1305268232819699e+01  8.6934076045441486e+01  5.1428479114332831e+01  7.1170881387777328e+01  5.2788480382934551e+01  7.1088209241694273e+01  7.1104364857682498e+01  7.8783756937191924e+01  7.2703783564313341e+01  7.0259303752126925e+01  7.9767224063610399e+01  6.1954144771782580e+01  5.3313625763879571e+01  6.8800487549843524e+01  8.1573587753074875e+01  5.5698295426744409e+01  5.6593949856459851e+01  6.2349719132278352e+01  5.2667436658967624e+01  6.0404975218758565e+01  7.3037718925578929e+01  7.0877490862482901e+01  8.0510736558731097e+01  8.3965928547745847e+01  6.9638277884507659e+01  7.3201884922838559e+01  6.4228641553003740e+01  6.3341007115353207e+01  6.0719978698260086e+01  5.7194879519899814e+01  5.7348508571749328e+01  5.1726722325214659e+01  8.7078443795493314e+01  8.4752727277029578e+01  5.5400467451717631e+01  6.9273215750316780e+01  8.1518264982882357e+01  6.2617128258601980e+01  7.2034823017275500e+01  5.6970837243749308e+01  6.2127495952882484e+01  6.4621248734828114e+01  7.6902362732677688e+01  5.7997293468646660e+01  6.4662647489457626e+01  8.7398905219983007e+01  6.1183282311898829e+01  5.1509068818834464e+01  7.1153363019326363e+01  6.5151939339070097e+01  5.7897427165215220e+01  7.5161598104072766e+01  7.0977202470319909e+01  7.1003688165628191e+01  6.1665513859860368e+01  6.1627213450472681e+01  6.6509001657003751e+01  8.5948440494622929e+01  8.5607647792366052e+01  8.6298359987183645e+01  7.5678718953835016e+01  7.5458294701099192e+01  8.4874258081552611e+01  6.2421341784303941e+01  7.0843579896410318e+01  7.0666620467913205e+01  6.2370676395498137e+01  6.5773572477665894e+01  6.4491558174681401e+01  7.7317772316243818e+01  5.8326036769895119e+01  5.2208360380835643e+01  5.7178413079385720e+01  5.6554012854276358e+01  7.1355079464509672e+01  6.1192544309549653e+01  6.2780133221207457e+01  7.4252167595245083e+01  7.4141274181033410e+01  6.0486186286141617e+01  6.0923908106913160e+01  7.7146378653041666e+01  7.7662091885781635e+01  6.5866383004220765e+01  5.4186649961363344e+01  6.1353827246186299e+01  6.8492560319081306e+01  7.9600628317972706e+01  6.6654821859469124e+01  8.2290426809244025e+01  6.8417836422892179e+01  6.9450107872232607e+01  7.0247338653959730e+01  8.0039664775570870e+01  8.0944740214607720e+01  6.9710979446286771e+01  6.0031188417599168e+01  6.0457569440123002e+01  8.0089556608340601e+01  7.0619369778417052e+01  7.9337738931527582e+01  8.2084274844918596e+01  6.8846790110653629e+01  7.1236968645431347e+01  6.1041314516681219e+01  5.9007094765664540e+01  5.9125485133514971e+01  7.5348297063989634e+01  7.5146691337630941e+01  8.3695370904050264e+01  5.6944420044140358e+01  5.6687062118571291e+01  5.6220558378877200e+01  7.6639545539137600e+01  5.7985353174118579e+01  6.1569320242115467e+01  7.6507382164511171e+01  6.2698577425272539e+01  6.3215658195179657e+01  6.4428853142719333e+01  7.4163311661890347e+01  7.3906128129397132e+01  6.5715906328995899e+01  6.7449536610871291e+01  5.2738284716309032e+01  8.4702293165361297e+01  6.2723766314376178e+01  7.2467612131839317e+01  5.3872009257179378e+01  5.3362419354386169e+01  6.3465691938525666e+01  6.3057939112395978e+01  6.2795273929997805e+01  7.0391086438352346e+01  7.7911159578200596e+01  7.8327884191041676e+01  5.8846034429665075e+01  5.9083579631847321e+01  6.5136407848510558e+01  7.1229831050230246e+01  7.3709699731542045e+01  6.9829847028663806e+01  6.2366749203872381e+01  5.7439479555358901e+01  6.1953409103362510e+01  7.0899013614380394e+01  7.1915215610115823e+01  5.1371567336539641e+01  6.1070590906327851e+01  8.7600507010011356e+01  7.1183343340715510e+01  7.4337175168748018e+01  6.9387948299840545e+01  7.8182682342387281e+01  6.3460815359640016e+01  5.7778665175908451e+01  6.2585073500754262e+01  7.4012836798413545e+01  7.4300732963741424e+01  7.8923733193461615e+01  6.3717726119260227e+01  5.4275414656498192e+01  5.3945270446052248e+01  5.3473181629652998e+01  5.4228475169216665e+01  5.9116858766143729e+01  7.8345329590498494e+01  7.2200382432033024e+01  6.1251625224273539e+01  6.1198336552577459e+01  6.1363276638360666e+01  5.8779291184075838e+01  5.8021938471114254e+01  7.4061289732437871e+01  7.3755744963756072e+01  8.3442719062219325e+01  7.9195926082465363e+01  6.4920278976245115e+01  8.4588249215669990e+01  7.0551914919875330e+01  6.6637473405991599e+01  6.2054603732202459e+01  8.5633504481543625e+01  7.5134747376961442e+01  5.6036276241512851e+01  5.5975093046788224e+01  5.2611014096275397e+01  7.0029169713307510e+01  8.2489740215208286e+01  6.8119227642541418e+01  7.0469152452347274e+01  7.0663587713773268e+01  7.0750031826142688e+01  7.6564616180957401e+01  6.0041029248389819e+01  8.6342915992992957e+01  5.3258790457498854e+01  7.8634570648702578e+01  6.7625178786857347e+01  7.0968581073377166e+01  6.1741784000049783e+01  5.6497294762538729e+01  6.5741159168061884e+01  7.9038963634355426e+01  5.9956319115969208e+01  8.1334119689924151e+01  6.1235699354861396e+01  5.2728699469192179e+01  7.0855690775488753e+01  6.7621619610606160e+01  7.8033694832941222e+01  6.2228057393717805e+01  7.4102297704555809e+01  6.1109906913818349e+01  7.1174335496557504e+01  8.7541104500987316e+01  5.1411236091922120e+01  6.9247561175920097e+01  6.3099868467249038e+01  5.3698308442764144e+01  6.2869860621433737e+01  7.0714419913342624e+01  6.7382170469887868e+01  6.2152257045082479e+01  5.9292206526530670e+01  8.5076108410452207e+01  7.0962437246074543e+01  7.0826424172342058e+01  6.9846020501964077e+01  6.3412288562373028e+01  6.5815902861119596e+01  6.6920396624091580e+01  7.0922202465192100e+01  6.2015567693446073e+01  7.0946719772516246e+01  6.2311713449363509e+01  7.2897596048382582e+01  8.0796643017997582e+01  7.1957916648611700e+01  5.5118758839843458e+01  8.1145518743743665e+01  6.1544689985542128e+01  5.4903851225676085e+01  5.5852696678637010e+01  5.5785654581581007e+01  6.4752274487454997e+01  6.1502040516230338e+01  5.2885576660336561e+01  7.3675640480187468e+01  8.2314172776438156e+01  6.7979839491045823e+01  6.1720930410954395e+01  5.7242942699085063e+01  7.1661348419465881e+01  7.0754733996512286e+01  5.2477587015246499e+01  8.0336426854353093e+01  6.9780375790870579e+01  7.4155932705758886e+01  6.1285482675989989e+01  7.4263696278831048e+01  7.3348910250575699e+01  8.3225270004287097e+01  6.1873183072517207e+01  7.0914440496966520e+01  7.0886800468833371e+01  6.2002678111745759e+01  6.1867943978935664e+01  6.1862050600768420e+01  5.2625977241359053e+01  8.6027226770752350e+01  6.9543686059083726e+01  8.0226235022953162e+01  6.1149839064030431e+01  7.3396534910747562e+01  7.1687060684790666e+01  6.8658476836948722e+01  7.5115238483359960e+01  7.9320894571851099e+01  8.1163786632474526e+01  6.2518472101829168e+01  7.1068191460592843e+01  6.1456847092930950e+01  5.4416249751787639e+01  7.1002966746284187e+01  6.3131205808525770e+01  8.4313414291527010e+01  6.2313670644514545e+01  8.3567378009305969e+01  8.4079081690247904e+01  5.3094766586201146e+01  5.2878750583140388e+01  8.5397014440113210e+01  8.5433060830707007e+01  7.7475421415254800e+01  6.3446608056213279e+01  6.1818772936540235e+01  6.2589147921522319e+01  6.3344879023994345e+01  6.1987729327649561e+01  6.4522954072407643e+01  5.2305925462158569e+01  6.0804460242257868e+01  6.4843817640400559e+01  7.9588376711817787e+01  7.7238011735228213e+01  6.2958631918309464e+01  6.0491318752919518e+01  6.1007578290388167e+01  6.2838152295415711e+01  5.6693546047372045e+01  7.9019433416586111e+01  7.4569933880071304e+01  7.0963845544734866e+01  7.1751747862378409e+01  7.1464057711857251e+01  8.0151554904960619e+01  5.1955958880996903e+01  8.6741246587938107e+01  8.6565616779880258e+01  8.6583192659345528e+01  5.2124349512532838e+01  5.1857800214657203e+01  5.4595570490777703e+01  6.9848720150126198e+01  5.5235437181981403e+01  7.3156693153354951e+01  5.6946232428703851e+01  6.1615776028315963e+01  6.1519903180461178e+01  7.1004236054238447e+01  7.1061397364579250e+01  7.1036836765088736e+01  6.1142292490396599e+01  8.6890324391442775e+01  7.1077622719490506e+01  6.1389863950604827e+01  5.3260151436895725e+01  7.2815188814801772e+01  6.1947806242854114e+01  7.1370267144210402e+01  8.0010723370812187e+01  7.1121244066989348e+01  6.1938203409380364e+01  7.0941993320136248e+01  5.8466461684628541e+01  5.5645978811435555e+01  5.5715948019895194e+01  5.4884654959452220e+01  8.2083395340811620e+01  6.1530592438453766e+01  8.5223399816903665e+01  5.5185890188593731e+01  7.0774591507591040e+01  6.2140985028410078e+01  7.2185337000318015e+01  7.2724811070615900e+01  5.2038010774284672e+01  6.2312066342261566e+01  8.5181346783688056e+01  5.6150386985186927e+01  6.1078257642060436e+01  5.8242926342544273e+01  7.8506884048282316e+01  6.8343850266973320e+01  5.9818438903871602e+01  6.2079054023044051e+01  6.0352375784904659e+01  6.2728430706040974e+01  8.2361649006607621e+01  7.6280653313251420e+01  6.7088081827654520e+01  6.3674200687211183e+01  6.2680233935607831e+01  6.3842717268151809e+01  6.4216620513358137e+01  6.1399535175713901e+01  7.0151024331587195e+01  7.0897992522056327e+01  6.7494688716739944e+01  6.1939245553125055e+01  7.0938555489836801e+01  6.2255984102455969e+01  8.0352567810300570e+01  7.0398521121722922e+01  7.4347091650206252e+01  7.4241691547306317e+01  7.4854939467514413e+01  6.3277170431703055e+01  6.4183284385709072e+01  5.6892076220545896e+01  5.6970775553092707e+01  5.6561913188644255e+01  6.5504939168724960e+01  5.2855391160707292e+01  6.1877940211065813e+01  6.6892919445210850e+01  8.5266474872075136e+01  8.5761585339479822e+01  8.3415723263936556e+01  6.6502187450496379e+01  6.8416671646644659e+01  6.7700463152311784e+01  6.2551579109376874e+01  5.9444064302315702e+01  8.2688644495899979e+01  7.8586016831938224e+01  5.2935439117662796e+01  7.4920447778700492e+01  7.5832419141824701e+01  6.2766357015964907e+01  8.2008297623055228e+01  5.7938852852815202e+01  7.6082312770877181e+01  5.7604941867648577e+01  7.6235458700707909e+01  6.3898617861957234e+01  6.4460280355129001e+01  6.0010869640783945e+01  7.9065297574538121e+01  5.9740495216139948e+01  5.7457365641701180e+01  6.3658774794299916e+01  6.2919030828844939e+01  7.9177884844282445e+01  6.1665836106005997e+01  6.6629141634825999e+01  7.4990127216142227e+01  6.6710533725675802e+01  5.9106702331399688e+01  7.5927452529400682e+01  5.1857599482149240e+01  8.6819161750346510e+01  7.484