<?xml version="1.0"?>
<VTKFile type="UnstructuredGrid"  version="0.1"  >
<UnstructuredGrid>
<Piece  NumberOfPoints="2331" NumberOfCells="4248">
<Points>
<DataArray  type="Float64"  NumberOfComponents="3"  format="ascii">0 0.3 0  0 0 0  0.04999999999999999 0 0  0.0514582251803892 0.02410733605106462 0  0.0558116365147896 0.04786313285751154 0  0.06299675146291706 0.07092097740850717 0  0.07290879486935808 0.09294463440875382 0  0.08540322682126872 0.1136129493462312 0  0.1002978503657798 0.132624531648159 0  0.117375468351841 0.1497021496342203 0  0.1363870506537689 0.1645967731787313 0  0.1570553655912463 0.177091205130642 0  0.1790790225914929 0.187003248537083 0  0.2021368671424885 0.1941883634852104 0  0.2258926639489354 0.1985417748196108 0  0.25 0.2 0  0.2741073360510646 0.1985417748196108 0  0.2978631328575116 0.1941883634852104 0  0.3209209774085071 0.187003248537083 0  0.3429446344087537 0.177091205130642 0  0.3636129493462312 0.1645967731787313 0  0.3826245316481591 0.1497021496342202 0  0.3997021496342202 0.132624531648159 0  0.4145967731787313 0.1136129493462312 0  0.427091205130642 0.09294463440875371 0  0.4370032485370829 0.07092097740850713 0  0.4441883634852104 0.04786313285751155 0  0.4485417748196108 0.02410733605106461 0  0.45 0 0  0.55 0 0  0.5514582251803892 0.02410733605106462 0  0.5558116365147896 0.04786313285751154 0  0.5629967514629171 0.07092097740850717 0  0.5729087948693581 0.09294463440875382 0  0.5854032268212688 0.1136129493462312 0  0.6002978503657798 0.132624531648159 0  0.617375468351841 0.1497021496342203 0  0.6363870506537689 0.1645967731787313 0  0.6570553655912463 0.177091205130642 0  0.6790790225914929 0.187003248537083 0  0.7021368671424885 0.1941883634852104 0  0.7258926639489354 0.1985417748196108 0  0.75 0.2 0  0.7741073360510646 0.1985417748196108 0  0.7978631328575116 0.1941883634852104 0  0.8209209774085071 0.187003248537083 0  0.8429446344087537 0.177091205130642 0  0.8636129493462312 0.1645967731787313 0  0.8826245316481591 0.1497021496342202 0  0.8997021496342202 0.132624531648159 0  0.9145967731787312 0.1136129493462312 0  0.927091205130642 0.09294463440875371 0  0.9370032485370829 0.07092097740850713 0  0.9441883634852104 0.04786313285751155 0  0.9485417748196108 0.02410733605106461 0  0.95 0 0  1 0 0  1 0.3 0  0.9758926639489353 0.3014582251803892 0  0.9521368671424885 0.3058116365147896 0  0.9290790225914928 0.3129967514629171 0  0.9070553655912461 0.3229087948693581 0  0.8863870506537688 0.3354032268212687 0  0.867375468351841 0.3502978503657798 0  0.8502978503657798 0.367375468351841 0  0.8354032268212687 0.3863870506537689 0  0.822908794869358 0.4070553655912464 0  0.8129967514629171 0.4290790225914929 0  0.8058116365147896 0.4521368671424885 0  0.8014582251803892 0.4758926639489354 0  0.8 0.4999999999999999 0  0.8014582251803892 0.5241073360510646 0  0.8058116365147896 0.5478631328575115 0  0.8129967514629171 0.5709209774085071 0  0.8229087948693581 0.5929446344087538 0  0.8354032268212688 0.6136129493462312 0  0.8502978503657798 0.632624531648159 0  0.867375468351841 0.6497021496342202 0  0.8863870506537689 0.6645967731787313 0  0.9070553655912463 0.677091205130642 0  0.9290790225914929 0.6870032485370829 0  0.9521368671424885 0.6941883634852104 0  0.9758926639489354 0.6985417748196108 0  1 0.7 0  1 1 0  0.95 1 0  0.9485417748196108 0.9758926639489353 0  0.9441883634852104 0.9521368671424885 0  0.9370032485370829 0.9290790225914928 0  0.927091205130642 0.9070553655912463 0  0.9145967731787312 0.8863870506537688 0  0.8997021496342201 0.8673754683518409 0  0.882624531648159 0.8502978503657798 0  0.863612949346231 0.8354032268212686 0  0.8429446344087537 0.822908794869358 0  0.8209209774085071 0.8129967514629171 0  0.7978631328575114 0.8058116365147896 0  0.7741073360510646 0.8014582251803892 0  0.75 0.8 0  0.7258926639489353 0.8014582251803892 0  0.7021368671424885 0.8058116365147896 0  0.6790790225914928 0.8129967514629171 0  0.6570553655912461 0.8229087948693581 0  0.6363870506537688 0.8354032268212688 0  0.617375468351841 0.8502978503657798 0  0.6002978503657798 0.867375468351841 0  0.5854032268212687 0.8863870506537689 0  0.572908794869358 0.9070553655912463 0  0.5629967514629171 0.9290790225914929 0  0.5558116365147896 0.9521368671424885 0  0.5514582251803892 0.9758926639489355 0  0.55 0.9999999999999999 0  0.45 0.9999999999999999 0  0.4485417748196108 0.9758926639489353 0  0.4441883634852104 0.9521368671424885 0  0.4370032485370829 0.9290790225914928 0  0.427091205130642 0.9070553655912463 0  0.4145967731787313 0.8863870506537688 0  0.3997021496342201 0.8673754683518409 0  0.382624531648159 0.8502978503657798 0  0.363612949346231 0.8354032268212686 0  0.3429446344087536 0.822908794869358 0  0.3209209774085071 0.8129967514629171 0  0.2978631328575115 0.8058116365147896 0  0.2741073360510646 0.8014582251803892 0  0.25 0.8 0  0.2258926639489353 0.8014582251803892 0  0.2021368671424885 0.8058116365147896 0  0.1790790225914928 0.8129967514629171 0  0.1570553655912462 0.8229087948693581 0  0.1363870506537688 0.8354032268212688 0  0.117375468351841 0.8502978503657798 0  0.1002978503657797 0.867375468351841 0  0.08540322682126869 0.8863870506537689 0  0.07290879486935797 0.9070553655912463 0  0.06299675146291703 0.9290790225914929 0  0.05581163651478957 0.9521368671424885 0  0.0514582251803892 0.9758926639489355 0  0.04999999999999999 0.9999999999999999 0  0 1 0  -0 0.7000000000000001 0  0.0241073360510646 0.6985417748196108 0  0.04786313285751161 0.6941883634852104 0  0.07092097740850711 0.6870032485370829 0  0.09294463440875372 0.677091205130642 0  0.1136129493462312 0.6645967731787312 0  0.1326245316481591 0.6497021496342202 0  0.1497021496342202 0.632624531648159 0  0.1645967731787313 0.6136129493462312 0  0.177091205130642 0.5929446344087537 0  0.187003248537083 0.5709209774085071 0  0.1941883634852104 0.5478631328575115 0  0.1985417748196108 0.5241073360510646 0  0.2 0.5 0  0.1985417748196108 0.4758926639489353 0  0.1941883634852104 0.4521368671424885 0  0.1870032485370829 0.4290790225914928 0  0.177091205130642 0.4070553655912463 0  0.1645967731787313 0.3863870506537688 0  0.1497021496342202 0.3673754683518409 0  0.132624531648159 0.3502978503657798 0  0.113612949346231 0.3354032268212686 0  0.09294463440875361 0.322908794869358 0  0.07092097740850711 0.3129967514629171 0  0.04786313285751148 0.3058116365147896 0  0.02410733605106464 0.3014582251803892 0  0.6985417748196108 0.5241073360510646 0  0.7 0.5 0  0.6985417748196108 0.4758926639489353 0  0.6941883634852104 0.4521368671424885 0  0.6870032485370829 0.4290790225914928 0  0.677091205130642 0.4070553655912463 0  0.6645967731787312 0.3863870506537688 0  0.6497021496342201 0.3673754683518409 0  0.632624531648159 0.3502978503657798 0  0.613612949346231 0.3354032268212686 0  0.5929446344087537 0.322908794869358 0  0.5709209774085071 0.3129967514629171 0  0.5478631328575114 0.3058116365147896 0  0.5241073360510646 0.3014582251803892 0  0.4999999999999999 0.3 0  0.4758926639489353 0.3014582251803892 0  0.4521368671424885 0.3058116365147896 0  0.4290790225914928 0.3129967514629171 0  0.4070553655912462 0.3229087948693581 0  0.3863870506537688 0.3354032268212687 0  0.367375468351841 0.3502978503657798 0  0.3502978503657798 0.367375468351841 0  0.3354032268212687 0.3863870506537689 0  0.322908794869358 0.4070553655912464 0  0.3129967514629171 0.4290790225914929 0  0.3058116365147896 0.4521368671424885 0  0.3014582251803892 0.4758926639489354 0  0.3 0.4999999999999999 0  0.3014582251803892 0.5241073360510646 0  0.3058116365147896 0.5478631328575115 0  0.3129967514629171 0.5709209774085071 0  0.3229087948693581 0.5929446344087538 0  0.3354032268212687 0.6136129493462312 0  0.3502978503657798 0.632624531648159 0  0.367375468351841 0.6497021496342202 0  0.3863870506537689 0.6645967731787313 0  0.4070553655912463 0.677091205130642 0  0.4290790225914929 0.6870032485370829 0  0.4521368671424885 0.6941883634852104 0  0.4758926639489354 0.6985417748196108 0  0.4999999999999999 0.7 0  0.5241073360510646 0.6985417748196108 0  0.5478631328575116 0.6941883634852104 0  0.5709209774085071 0.6870032485370829 0  0.5929446344087537 0.677091205130642 0  0.6136129493462312 0.6645967731787312 0  0.6326245316481591 0.6497021496342202 0  0.6497021496342202 0.632624531648159 0  0.6645967731787312 0.6136129493462312 0  0.677091205130642 0.5929446344087537 0  0.6870032485370829 0.5709209774085071 0  0.6941883634852104 0.5478631328575115 0  0 0.15 0  1 0.15 0  1 0.85 0  0 0.8500000000000001 0  0 0.075 0  1 0.075 0  1 0.925 0  0 0.925 0  0.5 0.8127595604293815 0  0.5069440078039168 0.190422209288238 0  0.25 0.3127595604293815 0  0.756944007803917 0.3095777907117619 0  0.756944007803917 0.6904222092882382 0  0.25 0.6872404395706185 0  0 0.225 0  0.4255768646051012 0.2241073097134061 0  1 0.7749999999999999 0  0.6773391559270888 0.2766774022734219 0  1 0.225 0  0.6755768646051011 0.7241073097134062 0  0 0.7750000000000001 0  0.5818971135297744 0.2287925518358889 0  0.8318971135297746 0.728792551835889 0  0.1659156081861886 0.7301636995921477 0  0.08376842746533225 0.2299656297760495 0  0.4236002201977974 0.7746535834185855 0  0.0840843918138115 0.7698363004078523 0  0.3340843918138113 0.7301636995921477 0  0.3340843918138114 0.2698363004078523 0  0.9159156081861887 0.2301636995921477 0  0.5840843918138116 0.7698363004078522 0  0.1659156081861887 0.2698363004078523 0  0.9162315725346678 0.7700343702239506 0  0.8340843918138114 0.2698363004078523 0  0.75 0.6146645247768686 0  0.5 0.1125158665330878 0  0.75 0.3874841334669124 0  0.2504983345544904 0.6122915843562002 0  0.2504983345544902 0.3877084156437999 0  0.5 0.8879783056303169 0  0.7005361650220154 0.3333055947145943 0  0.70416808765371 0.6599554817221275 0  0.449930214263529 0.1678187287522426 0  0.2247310981387008 0.7415600637745463 0  0.5155081196221678 0.7563797802146907 0  0.2752689018612993 0.2584399362254537 0  0.05605196690611226 0.8246131191226815 0  0.9439480330938878 0.1
[...]
<PointData  Scalars="Temperature"> 
<DataArray  type="Float64"  Name="Temperature"  format="ascii">1.2440269985147499e+02  1.3312751421175636e+02  1.3311296269925998e+02  1.3291203280409997e+02  1.3235061738963938e+02  1.3147905112128760e+02  1.3031639295955293e+02  1.2887802488094431e+02  1.2718003016097362e+02  1.2520045767022059e+02  1.2288539647095864e+02  1.2025972799132022e+02  1.1739570254854831e+02  1.1434978365732432e+02  1.1117583426815347e+02  1.0794697942946532e+02  1.0467176970364595e+02  1.0134385476743239e+02  9.8036110107639615e+01  9.4738864980671792e+01  9.1612172110002064e+01  8.8754119165571112e+01  8.6272298729162898e+01  8.4310152379489196e+01  8.2853868818230652e+01  8.1886248076515429e+01  8.1298730281397482e+01  8.1009164890968592e+01  8.0925899456065991e+01  8.0416721688788982e+01  8.0321074496135381e+01  8.0007961838798238e+01  7.9380446122468101e+01  7.8351203912983820e+01  7.6801077060795777e+01  7.4716561256016689e+01  7.2142445615888420e+01  6.9169996003705606e+01  6.5941270942431416e+01  6.2641942510932665e+01  5.9446083779719928e+01  5.6492275337058402e+01  5.3850913520666637e+01  5.1539117690236147e+01  4.9543817773508302e+01  4.7857264303482431e+01  4.6415463687666204e+01  4.5203780184844241e+01  4.4201655795432139e+01  4.3365994821942607e+01  4.2679153427869807e+01  4.2111641498839582e+01  4.1660264634845745e+01  4.1324735078435367e+01  4.1109367858370838e+01  4.1032542449366041e+01  4.1026320819278915e+01  4.4234573335515684e+01  4.4370411313483821e+01  4.4762614049512969e+01  4.5370141354159713e+01  4.6110765328504741e+01  4.6880600993030818e+01  4.7545796612692079e+01  4.7990542866342686e+01  4.8113060636800292e+01  4.7878546499063965e+01  4.7235484933004656e+01  4.6283317374867217e+01  4.5112139671082602e+01  4.3846074972062823e+01  4.2604521818500565e+01  4.1457257855075767e+01  4.0405442336859288e+01  3.9445380078662168e+01  3.8521246401236731e+01  3.7612567187477545e+01  3.6730490079620090e+01  3.5868667099866499e+01  3.5080708553145200e+01  3.4403905429558563e+01  3.3887839208665760e+01  3.3568273301945084e+01  3.3456019867434193e+01  3.1116740199117583e+01  3.1120337689680227e+01  3.1172886411825552e+01  3.1320576184878512e+01  3.1551508982636797e+01  3.1863854913113851e+01  3.2256823626786002e+01  3.2734036900645798e+01  3.3306196489364410e+01  3.3982643380972071e+01  3.4777727955185910e+01  3.5689367280408227e+01  3.6696392212459806e+01  3.7805253874647725e+01  3.8984116086456780e+01  4.0266907606379313e+01  4.1634925803554054e+01  4.3076072432402313e+01  4.4547876851139684e+01  4.5997699007996026e+01  4.7312098759281810e+01  4.8459692041020588e+01  4.9332300388608324e+01  4.9954893071503029e+01  5.0317969984600012e+01  5.0492640996353671e+01  5.0561601457837895e+01  5.0575404879565681e+01  5.0878887327339818e+01  5.0981963793195966e+01  5.1284295677373883e+01  5.1826316419847821e+01  5.2668355852377616e+01  5.3885227356395987e+01  5.5463486237768635e+01  5.7399726112176261e+01  5.9597360600802830e+01  6.1984068020611268e+01  6.4384116953127176e+01  6.6641258910047057e+01  6.8651052438503839e+01  7.0289887943000792e+01  7.1558203771181965e+01  7.2454894317554007e+01  7.3058637723508909e+01  7.3437848927998445e+01  7.3664371293882709e+01  7.3796487283280442e+01  7.3868881166615111e+01  7.3904690138636425e+01  7.3921736892383549e+01  7.3927827625488618e+01  7.3929495029511813e+01  7.3929651374310453e+01  7.3929580943077283e+01  7.3929659396232267e+01  7.4144409041047297e+01  7.4158633203533967e+01  7.4207753751108456e+01  7.4312656491163395e+01  7.4515326117364424e+01  7.4876373648673209e+01  7.5482929655340229e+01  7.6425682292469261e+01  7.7809679001830361e+01  7.9680236597440057e+01  8.2089435862429283e+01  8.4982616341733788e+01  8.8270997610670022e+01  9.1745734163579911e+01  9.5231363926960341e+01  9.8575324164965238e+01  1.0172728637747387e+02  1.0472415586569464e+02  1.0767440499841609e+02  1.1060343313392440e+02  1.1351564800285047e+02  1.1631993466759319e+02  1.1892829418245046e+02  1.2119296674637449e+02  1.2291265691524018e+02  1.2401583886427443e+02  4.2868627044384809e+01  4.4102819199438912e+01  4.5536767039608115e+01  4.7137032261977893e+01  4.8897702809855772e+01  5.0869381692396644e+01  5.3125811144330605e+01  5.5714542618805915e+01  5.8685310384635983e+01  6.1942491708539706e+01  6.5443113463715761e+01  6.9122267850640426e+01  7.2846074403964181e+01  7.6576601384401030e+01  8.0271506191601702e+01  8.3917288944943905e+01  8.7457387357402226e+01  9.0867150975880392e+01  9.4019351641060297e+01  9.6805574942786450e+01  9.8986015589055214e+01  1.0046769180000248e+02  1.0108546143750964e+02  1.0079022574991617e+02  9.9542566765872351e+01  9.7467602621324858e+01  9.4692842670123710e+01  9.1427384682091571e+01  8.7944262928069904e+01  8.4457872981644655e+01  8.1121408624875215e+01  7.7898815499567547e+01  7.4847108641832151e+01  7.1880562924841826e+01  6.8937572794754857e+01  6.6029236715561979e+01  6.3113274882103774e+01  6.0304026131687962e+01  5.7590664161489848e+01  5.5054883904317947e+01  5.2675548470675245e+01  5.0469438262891593e+01  4.8424162733769293e+01  4.6574571249855182e+01  4.4902166622787178e+01  4.3466166161881752e+01  4.2315858225447109e+01  4.1485863582057355e+01  4.1020994934618074e+01  4.0940353489129521e+01  4.1244418385067419e+01  4.1902285613839283e+01  1.2887707211634103e+02  4.2633159225749502e+01  3.2238894771851484e+01  7.3952367446386020e+01  1.3182092287747622e+02  4.1525608459411039e+01  3.1459421699776296e+01  7.3931709803716359e+01  5.1974190064513124e+01  7.9837036308461123e+01  1.0641136557954407e+02  5.1690870577742530e+01  3.8996271204262754e+01  7.3466207092275212e+01  1.2591987534094373e+02  8.8237616056930207e+01  3.3035700984003327e+01  5.9001575649026591e+01  4.3701674644563106e+01  4.1950454898896680e+01  7.4046469366344695e+01  7.1410435876136290e+01  3.6339031489034035e+01  7.3836797945594810e+01  1.2332118236920154e+02  5.7735867357844064e+01  7.3979860160883945e+01  6.6579011165105456e+01  9.9196721959518953e+01  4.4791034277921256e+01  4.7190290568770465e+01  1.1533342685587483e+02  3.3806489349355843e+01  4.8077389061903702e+01  4.0064753103928780e+01  8.0584523851963212e+01  4.9361264842994814e+01  7.8705613569234842e+01  1.0290348456862891e+02  5.1292900650610655e+01  5.4340425202735865e+01  4.0553176083386205e+01  8.4379553012905689e+01  7.2258383805674740e+01  5.1329629784400602e+01  1.0496141590093485e+02  7.3933815971836026e+01  4.3414829753703920e+01  1.2691160842694453e+02  3.2832725849599306e+01  8.2167540399778602e+01  3.9779140506851888e+01  5.4585791042372072e+01  5.4693435634030735e+01  7.5169684705983556e+01  1.1048356016999914e+02  7.1362932430743385e+01  1.0197719368517981e+02  4.9120786234319645e+01  8.0652176701014568e+01  4.6761994016574768e+01  4.1983071367890034e+01  9.8173646664267750e+01  8.5799410417928357e+01  5.0722718692875020e+01  5.0887163590809990e+01  1.1032557613345611e+02  7.0001193702205484e+01  7.5379789506135808e+01  3.8579821777185956e+01  4.8863173722003332e+01  6.4936557229274527e+01  9.3443963278424931e+01  9.5000357515721277e+01  4.4228662031171190e+01  4.4985255287546877e+01  6.3987638301694254e+01  3.7891060720087985e+01  5.0735356338620676e+01  4.4247595707800187e+01  8.0671842203244736e+01  9.2303919210195019e+01  6.2031964129110243e+01  6.2726728929553893e+01  7.6732526025941596e+01  3.4925512155812193e+01  3.4991606082351950e+01  5.4258178427289756e+01  1.2037459972639680e+02  7.4100086987319003e+01  4.5776844261354675e+01  7.3671992175957072e+01  1.1881270906949742e+02  7.4192791814627682e+01  4.4264092644710836e+01  4.6414625872132405e+01  3.3538340227176235e+01  1.2414054006390876e+02  4.2508454712430208e+01  3.2082248274012713e+01  1.2949561362128657e+02  7.3929483659316048e+01  4.8880702296648700e+01  3.7636704875586659e+01  7.8144839823135655e+01  4.0339490970225356e+01  4.6973282955820217e+01  6.7584129256332218e+01  1.1479886873389522e+02  4.4486504335774356e+01  9.8629467120788277e+01  7.4780515093630285e+01  7.3834963210593756e+01  1.2438469849396746e+02  3.3609665846561974e+01  7.7496800978788713e+01  1.0646463615669506e+02  5.0710824848107649e+01  3.6545307489490924e+01  1.0369437741512978e+02  7.4972189717961541e+01  5.8814619940700815e+01  5.9130595665782799e+01  5.8228295623316662e+01  8.7097395245433162e+01  4.2588526492010423e+01  8.9622597461031901e+01  4.2064469362737618e+01  5.2888374138908375e+01  5.6909837693382698e+01  7.0989254397252623e+01  5.4944066441672192e+01  3.6602413314702410e+01  6.9464535375814663e+01  7.2885231378107363e+01  9.9768176034545931e+01  6.6969768694629735e+01  1.1427788200306793e+02  4.7506248704833986e+01  4.7501525910850653e+01  8.3553973983779869e+01  1.2567754891804887e+02  4.8429208830210364e+01  4.3889155757965575e+01  7.4004001741421817e+01  5.0143557026189583e+01  7.3988520020254342e+01  4.3204202734159345e+01  4.9781337419525130e+01  3.2655788108395292e+01  8.2759877418013033e+01  5.1406485761879807e+01  5.1522365703164702e+01  8.1304808954818498e+01  1.2732714535758278e+02  4.0617686711218113e+01  4.0780951908427490e+01  3.9396716326155200e+01  8.2044319851994857e+01  1.0293345856545319e+02  7.6235476617249176e+01  1.0177039940039468e+02  7.4179829635733483e+01  8.1404682714181220e+01  7.9844648131392532e+01  4.7704954190427735e+01  4.8978355374555882e+01  4.9994220197959748e+01  5.0616940594978495e+01  5.1780724673534358e+01  3.2659295359140259e+01  7.4111585822668175e+01  3.1825020186814047e+01  4.4062660063683211e+01  1.2484772171203574e+02  4.1158617619428092e+01  1.3278230008854823e+02  4.2047036961396607e+01  4.1852809071182740e+01  1.3044190080250056e+02  3.1206758802494008e+01  7.3930073260799574e+01  3.3328953806660266e+01  7.3936960433588496e+01  7.3930070062967246e+01  1.0027276876948913e+02  8.1585268395373930e+01  7.3660522663599068e+01  1.0258596592186512e+02  5.2669354381454653e+01  3.4190558954072714e+01  6.9846715718988364e+01  1.0944968657391910e+02  3.8556860657758598e+01  3.9429067050349715e+01  5.3803193389918043e+01  3.3147101142692662e+01  4.9038258152037031e+01  7.8382325194624087e+01  7.5802569754558164e+01  1.0596345179006791e+02  1.1880704757280139e+02  6.7848039110489509e+01  7.8290254467730819e+01  5.2008881871911306e+01  5.0166206380297943e+01  4.9817113613435446e+01  4.1363003523221074e+01  4.1550456467731948e+01  3.1671241293883362e+01  1.3102182778487978e+02  1.2183539592156620e+02  3.7584030587671322e+01  7.1412205526694905e+01  1.0949478304616736e+02  4.6644789265170239e+01  7.4909177922570265e+01  4.0328934381163350e+01  4.4879456489918248e+01  5.4130173526035293e+01  9.1474986272292085e+01  4.3331355443340577e+01  5.9578621922824553e+01  1.3230943650103362e+02  4.1424036170982227e+01  3.1331988406349311e+01  7.3930171613247637e+01  6.0724147449191975e+01  4.1460254891594289e+01  8.5305408854008036e+01  7.3900988658255997e+01  7.3960123926306807e+01  4.3123160314418250e+01  4.3001983997436014e+01  6.4160999431916778e+01  1.2652478478520676e+02  1.2517839997096347e+02  1.2790347997251504e+02  8.6723986871113070e+01  8.6122074244636920e+01  1.2232873811386834e+02  5.3881790869134676e+01  7.4542515583282864e+01  7.3636350088540198e+01  4.5594927879839560e+01  5.6867634673752711e+01  5.2493844418967257e+01  9.2951065375003154e+01  4.4048063101190657e+01  3.2426957719592352e+01  4.0924754246496370e+01  3.9854893979682650e+01  7.2670651399432742e+01  5.0626178586903499e+01  4.7993915884210679e+01  8.0850780389150415e+01  8.0484695549780653e+01  4.5401959409313022e+01  4.6282743681871892e+01  9.5267079153010954e+01  9.6955370820575340e+01  5.6819237771981200e+01  3.5618553414253832e+01  5.1017512558117772e+01  6.4298422427559800e+01  1.0182316215219673e+02  6.4736513867286348e+01  1.1243636313060865e+02  6.9220166438734338e+01  7.1344820236382134e+01  7.3361373159417354e+01  1.0346000009446374e+02  1.0715262142816621e+02  7.2301377264124994e+01  4.8117295744492608e+01  4.9053628363141051e+01  1.0406383467441115e+02  7.4364594962658614e+01  1.0133482449765172e+02  1.1184101709797716e+02  7.0557135420307461e+01  7.6483872669315431e+01  5.0488925274026911e+01  4.3099151119970443e+01  4.3236846431492395e+01  8.9702935565556743e+01  8.9060691176474933e+01  1.1782754792534574e+02  4.1044073293531007e+01  4.0584226453598816e+01  3.9409715507246588e+01  9.0724039649502600e+01  4.3427123727300355e+01  5.1826451227444508e+01  9.0149835718369886e+01  5.4497129529680265e+01  5.5865744599004714e+01  5.3149508418930189e+01  8.2101213140190964e+01  8.0951929796553159e+01  5.6179049610093763e+01  6.1364589257572597e+01  3.3272497614051154e+01  1.2163006025895638e+02  4.8366402024295269e+01  7.5902440347986399e+01  3.5212803697099702e+01  3.4334875574385350e+01  5.0098832897959156e+01  4.8492956263228976e+01  4.7040407951852139e+01  7.3250661051714843e+01  9.5467019832081448e+01  9.7000152276373271e+01  4.5374446710029204e+01  4.5913936136701153e+01  6.0819041212743429e+01  7.2400234143525111e+01  7.9724278476859951e+01  6.8310914697041923e+01  4.5688974874360319e+01  4.0771797365295186e+01  4.4171385662588442e+01  7.3934278008053553e+01  7.4798530492105073e+01  3.1118561368518989e+01  4.1029242720364621e+01  1.3312139962020370e+02  7.3929617918307073e+01  8.2129782179769222e+01  6.7227384205835207e+01  9.6365418398222872e+01  5.6434043278967401e+01  4.2900551908014286e+01  4.6690743093563192e+01  8.0175265981186982e+01  8.1119925256214785e+01  1.0085421617360348e+02  5.0069229573737196e+01  3.5799483900760841e+01  3.5277018482307163e+01  3.4480763324261851e+01  3.5796283293012273e+01  4.5959100499810432e+01  9.6887339878617226e+01  7.9761558686201525e+01  5.0757431987785161e+01  5.0619300574612964e+01  5.1093916802790702e+01  4.5195686016863519e+01  4.1546741718662787e+01  8.5662105381702986e+01  8.4804204462440993e+01  1.1683223981423095e+02  1.0039874446705778e+02  6.0193592822190546e+01  1.2121142415503893e+02  7.4667907724120226e+01  6.4540332294040496e+01  4.8166850339913822e+01  1.2527218989025754e+02  8.4607768916318605e+01  3.8561927026327325e+01  3.8662128237194167e+01  3.3077119374162280e+01  7.3744783085465940e+01  1.1309747451368183e+02  6.8331585594385700e+01  7.3530645561807304e+01  7.3913324402975562e+01  7.3912637872584995e+01  9.3499355017099447e+01  4.4771416361706116e+01  1.2808595160195324e+02  3.4142450629707966e+01  1.0003654996006522e+02  6.2161504938703821e+01  7.4010593570574017e+01  4.3422102196595844e+01  3.9374813839929502e+01  5.7024324976588588e+01  9.9969272863686911e+01  4.7909415038956048e+01  1.0911143380819514e+02  4.6593882191825521e+01  3.3237600176698059e+01  7.4326579000639953e+01  6.1971246737891235e+01  9.7979554569491128e+01  4.5142104032577038e+01  8.0630252644284994e+01  4.1166856392590347e+01  7.3929791802589151e+01  1.3288202099933611e+02  3.1180069351250939e+01  7.1029629896005503e+01  4.9929238206730581e+01  3.4816739432772160e+01  4.7432480197092900e+01  7.4252293421776926e+01  6.1053851159050659e+01  4.5010288208359910e+01  4.6392301177520565e+01  1.2310526246764118e+02  7.5441287953009592e+01  7.4077256138268680e+01  7.3327878940305609e+01  4.9329345855673829e+01  6.2484327340796114e+01  6.5367943196372579e+01  7.4157636885242724e+01  4.4477498365381635e+01  7.4053790829942997e+01  4.8153644203181265e+01  7.7609123608697814e+01  1.0642347003662478e+02  7.9399127180124751e+01  3.7461678601290572e+01  1.0823799725561710e+02  5.1829692148750574e+01  3.6972167153892130e+01  3.8783017358376853e+01  3.8541161598554424e+01  5.3650496990165188e+01  5.1409898191903821e+01  3.3501655768157121e+01  7.9422858227524259e+01  1.1232160369163401e+02  6.7818282833085448e+01  5.2050724097314003e+01  4.0783323956882889e+01  7.8440811988462642e+01  7.3806413116178149e+01  3.2845591059872504e+01  1.0485006405052937e+02  7.2896472107959511e+01  8.0495254927562954e+01  5.0830573988565853e+01  8.0851645230105760e+01  7.8398862624008459e+01  1.1586756054835398e+02  4.3852784102944113e+01  7.3881368382299883e+01  7.4078256821489418e+01  4.4390479713319031e+01  4.3905660289751992e+01  4.3876672771296818e+01  3.3111788670481680e+01  1.2682662175948670e+02  6.7357212246780307e+01  1.0531561240817278e+02  5.0624678717930557e+01  7.9410924928612701e+01  7.3963216304159047e+01  6.4951640938003649e+01  8.5345649516944093e+01  1.0189083956435636e+02  1.0790850652660313e+02  4.6551523956138723e+01  7.3923530216294935e+01  4.2385821151840254e+01  3.6178808719019472e+01  7.5951719249453987e+01  5.5756467385695586e+01  1.2018171074433582e+02  4.5662746841348543e+01  1.1724914905845371e+02  1.1919529519953791e+02  3.3827351514382251e+01  3.3474051289883022e+01  1.2434571364811633e+02  1.2449222749772716e+02  9.3671802709502700e+01  5.6420116877533935e+01  4.7963026006217511e+01  4.8839381930064903e+01  5.6241219681916611e+01  5.2878212561458369e+01  5.2714689218398675e+01  3.2576784855767123e+01  4.9867083947317582e+01  5.9965863723049090e+01  1.0239214640171038e+02  9.5587415453796439e+01  4.8972473943946184e+01  4.5476552947297286e+01  5.0257195659687852e+01  5.4996483347084684e+01  3.9948923748881285e+01  1.0085081259032034e+02  8.2336908417853138e+01  7.3975180339669279e+01  7.8242898667104555e+01  7.7584097654447874e+01  1.0485530931606309e+02  3.2027987410920645e+01  1.2966959014487847e+02  1.2896862337139606e+02  1.2904342271526437e+02  3.2300897039204479e+01  3.1878049546822886e+01  3.6273992051426070e+01  7.2190191792966331e+01  3.7510467182019326e+01  8.2904174314693790e+01  3.9924247071662158e+01  4.2953295153887268e+01  4.2615364667996040e+01  7.3935078489141972e+01  7.3942502902966538e+01  7.3944339417382281e+01  5.0532337535854516e+01  1.3026909259562905e+02  7.3934882157610204e+01  4.2152190900039386e+01  3.4115286662868186e+01  7.7012392686393184e+01  5.2571360136045570e+01  7.3179467198555230e+01  1.0420487808386238e+02  7.6684864644447828e+01  4.4180875795962507e+01  7.4135724448521287e+01  4.2289690984283837e+01  3.8059855302604554e+01  3.8300735970680876e+01  3.6830218615053923e+01  1.1146161859515547e+02  5.1642759205033336e+01  1.2367058665242143e+02  3.7286544978944534e+01  7.3741085109153872e+01  4.4786946397005849e+01  7.9815937331526740e+01  7.6926192938360742e+01  3.2157321226247490e+01  5.3542630065555521e+01  1.2351188270202350e+02  3.9488558349581325e+01  4.1056074900272172e+01  4.3945677226393776e+01  9.7558064521739922e+01  6.8782277531870960e+01  4.4319370206860732e+01  5.3061718854760038e+01  4.8892905818275523e+01  4.9814305814603266e+01  1.1278166313844388e+02  9.2586735708014913e+01  6.5596566542817087e+01  5.1909805047924372e+01  4.7408718647723632e+01  5.1033288549933644e+01  5.2998895371980531e+01  5.1270339495578781e+01  7.2788276188043682e+01  7.4911147415371147e+01  6.6953655743533091e+01  4.4181306248147486e+01  7.4128641212932649e+01  4.5335447551036502e+01  1.0522573258341845e+02  7.4509103415888362e+01  8.1614942633946526e+01  8.1417828420406849e+01  8.3656735375349669e+01  4.8623626702829895e+01  5.8401175401625963e+01  4.0627707000076313e+01  4.1006617229627821e+01  4.0157602677063387e+01  5.6287558305321319e+01  3.3473137215839643e+01  4.3885111188148940e+01  5.9971473264902393e+01  1.2384213306948779e+02  1.2578532322039744e+02  1.1662812051353399e+02  5.8471594730264449e+01  6.9309230155741531e+01  6.7387514438234717e+01  4.8337024505227518e+01  4.6737262167885490e+01  1.1407304430676959e+02  9.8127605682997043e+01  3.3624869150880265e+01  8.4576155716921065e+01  8.7700362716463800e+01  4.7278379987713734e+01  1.1129547686799336e+02  4.3076880624891054e+01  8.8395270578863276e+01  4.2381845954135564e+01  8.8815015376841714e+01  5.7581125494701581e+01  5.8965835372179598e+01  4.8051584394506023e+01  9.9657205859161806e+01  4.7457145908991684e+01  4.2265828538038797e+01  5.1549913048322651e+01  5.0000497792841635e+01  1.0043358958845270e+02  5.1878694629542252e+01  5.9005272292244271e+01  8.8585554938666135e+01  5.9645566000571279e+01  4.3228904060284236e+01  8.8184282994848189e+01  3.1875313668107182e+01  1.2998199313758724e+02  8.344