<?xml version="1.0"?>
<VTKFile type="UnstructuredGrid"  version="0.1"  >
<UnstructuredGrid>
<Piece  NumberOfPoints="2331" NumberOfCells="4248">
<Points>
<DataArray  type="Float64"  NumberOfComponents="3"  format="ascii">0 0.3 0  0 0 0  0.04999999999999999 0 0  0.0514582251803892 0.02410733605106462 0  0.0558116365147896 0.04786313285751154 0  0.06299675146291706 0.07092097740850717 0  0.07290879486935808 0.09294463440875382 0  0.08540322682126872 0.1136129493462312 0  0.1002978503657798 0.132624531648159 0  0.117375468351841 0.1497021496342203 0  0.1363870506537689 0.1645967731787313 0  0.1570553655912463 0.177091205130642 0  0.1790790225914929 0.187003248537083 0  0.2021368671424885 0.1941883634852104 0  0.2258926639489354 0.1985417748196108 0  0.25 0.2 0  0.2741073360510646 0.1985417748196108 0  0.2978631328575116 0.1941883634852104 0  0.3209209774085071 0.187003248537083 0  0.3429446344087537 0.177091205130642 0  0.3636129493462312 0.1645967731787313 0  0.3826245316481591 0.1497021496342202 0  0.3997021496342202 0.132624531648159 0  0.4145967731787313 0.1136129493462312 0  0.427091205130642 0.09294463440875371 0  0.4370032485370829 0.07092097740850713 0  0.4441883634852104 0.04786313285751155 0  0.4485417748196108 0.02410733605106461 0  0.45 0 0  0.55 0 0  0.5514582251803892 0.02410733605106462 0  0.5558116365147896 0.04786313285751154 0  0.5629967514629171 0.07092097740850717 0  0.5729087948693581 0.09294463440875382 0  0.5854032268212688 0.1136129493462312 0  0.6002978503657798 0.132624531648159 0  0.617375468351841 0.1497021496342203 0  0.6363870506537689 0.1645967731787313 0  0.6570553655912463 0.177091205130642 0  0.6790790225914929 0.187003248537083 0  0.7021368671424885 0.1941883634852104 0  0.7258926639489354 0.1985417748196108 0  0.75 0.2 0  0.7741073360510646 0.1985417748196108 0  0.7978631328575116 0.1941883634852104 0  0.8209209774085071 0.187003248537083 0  0.8429446344087537 0.177091205130642 0  0.8636129493462312 0.1645967731787313 0  0.8826245316481591 0.1497021496342202 0  0.8997021496342202 0.132624531648159 0  0.9145967731787312 0.1136129493462312 0  0.927091205130642 0.09294463440875371 0  0.9370032485370829 0.07092097740850713 0  0.9441883634852104 0.04786313285751155 0  0.9485417748196108 0.02410733605106461 0  0.95 0 0  1 0 0  1 0.3 0  0.9758926639489353 0.3014582251803892 0  0.9521368671424885 0.3058116365147896 0  0.9290790225914928 0.3129967514629171 0  0.9070553655912461 0.3229087948693581 0  0.8863870506537688 0.3354032268212687 0  0.867375468351841 0.3502978503657798 0  0.8502978503657798 0.367375468351841 0  0.8354032268212687 0.3863870506537689 0  0.822908794869358 0.4070553655912464 0  0.8129967514629171 0.4290790225914929 0  0.8058116365147896 0.4521368671424885 0  0.8014582251803892 0.4758926639489354 0  0.8 0.4999999999999999 0  0.8014582251803892 0.5241073360510646 0  0.8058116365147896 0.5478631328575115 0  0.8129967514629171 0.5709209774085071 0  0.8229087948693581 0.5929446344087538 0  0.8354032268212688 0.6136129493462312 0  0.8502978503657798 0.632624531648159 0  0.867375468351841 0.6497021496342202 0  0.8863870506537689 0.6645967731787313 0  0.9070553655912463 0.677091205130642 0  0.9290790225914929 0.6870032485370829 0  0.9521368671424885 0.6941883634852104 0  0.9758926639489354 0.6985417748196108 0  1 0.7 0  1 1 0  0.95 1 0  0.9485417748196108 0.9758926639489353 0  0.9441883634852104 0.9521368671424885 0  0.9370032485370829 0.9290790225914928 0  0.927091205130642 0.9070553655912463 0  0.9145967731787312 0.8863870506537688 0  0.8997021496342201 0.8673754683518409 0  0.882624531648159 0.8502978503657798 0  0.863612949346231 0.8354032268212686 0  0.8429446344087537 0.822908794869358 0  0.8209209774085071 0.8129967514629171 0  0.7978631328575114 0.8058116365147896 0  0.7741073360510646 0.8014582251803892 0  0.75 0.8 0  0.7258926639489353 0.8014582251803892 0  0.7021368671424885 0.8058116365147896 0  0.6790790225914928 0.8129967514629171 0  0.6570553655912461 0.8229087948693581 0  0.6363870506537688 0.8354032268212688 0  0.617375468351841 0.8502978503657798 0  0.6002978503657798 0.867375468351841 0  0.5854032268212687 0.8863870506537689 0  0.572908794869358 0.9070553655912463 0  0.5629967514629171 0.9290790225914929 0  0.5558116365147896 0.9521368671424885 0  0.5514582251803892 0.9758926639489355 0  0.55 0.9999999999999999 0  0.45 0.9999999999999999 0  0.4485417748196108 0.9758926639489353 0  0.4441883634852104 0.9521368671424885 0  0.4370032485370829 0.9290790225914928 0  0.427091205130642 0.9070553655912463 0  0.4145967731787313 0.8863870506537688 0  0.3997021496342201 0.8673754683518409 0  0.382624531648159 0.8502978503657798 0  0.363612949346231 0.8354032268212686 0  0.3429446344087536 0.822908794869358 0  0.3209209774085071 0.8129967514629171 0  0.2978631328575115 0.8058116365147896 0  0.2741073360510646 0.8014582251803892 0  0.25 0.8 0  0.2258926639489353 0.8014582251803892 0  0.2021368671424885 0.8058116365147896 0  0.1790790225914928 0.8129967514629171 0  0.1570553655912462 0.8229087948693581 0  0.1363870506537688 0.8354032268212688 0  0.117375468351841 0.8502978503657798 0  0.1002978503657797 0.867375468351841 0  0.08540322682126869 0.8863870506537689 0  0.07290879486935797 0.9070553655912463 0  0.06299675146291703 0.9290790225914929 0  0.05581163651478957 0.9521368671424885 0  0.0514582251803892 0.9758926639489355 0  0.04999999999999999 0.9999999999999999 0  0 1 0  -0 0.7000000000000001 0  0.0241073360510646 0.6985417748196108 0  0.04786313285751161 0.6941883634852104 0  0.07092097740850711 0.6870032485370829 0  0.09294463440875372 0.677091205130642 0  0.1136129493462312 0.6645967731787312 0  0.1326245316481591 0.6497021496342202 0  0.1497021496342202 0.632624531648159 0  0.1645967731787313 0.6136129493462312 0  0.177091205130642 0.5929446344087537 0  0.187003248537083 0.5709209774085071 0  0.1941883634852104 0.5478631328575115 0  0.1985417748196108 0.5241073360510646 0  0.2 0.5 0  0.1985417748196108 0.4758926639489353 0  0.1941883634852104 0.4521368671424885 0  0.1870032485370829 0.4290790225914928 0  0.177091205130642 0.4070553655912463 0  0.1645967731787313 0.3863870506537688 0  0.1497021496342202 0.3673754683518409 0  0.132624531648159 0.3502978503657798 0  0.113612949346231 0.3354032268212686 0  0.09294463440875361 0.322908794869358 0  0.07092097740850711 0.3129967514629171 0  0.04786313285751148 0.3058116365147896 0  0.02410733605106464 0.3014582251803892 0  0.6985417748196108 0.5241073360510646 0  0.7 0.5 0  0.6985417748196108 0.4758926639489353 0  0.6941883634852104 0.4521368671424885 0  0.6870032485370829 0.4290790225914928 0  0.677091205130642 0.4070553655912463 0  0.6645967731787312 0.3863870506537688 0  0.6497021496342201 0.3673754683518409 0  0.632624531648159 0.3502978503657798 0  0.613612949346231 0.3354032268212686 0  0.5929446344087537 0.322908794869358 0  0.5709209774085071 0.3129967514629171 0  0.5478631328575114 0.3058116365147896 0  0.5241073360510646 0.3014582251803892 0  0.4999999999999999 0.3 0  0.4758926639489353 0.3014582251803892 0  0.4521368671424885 0.3058116365147896 0  0.4290790225914928 0.3129967514629171 0  0.4070553655912462 0.3229087948693581 0  0.3863870506537688 0.3354032268212687 0  0.367375468351841 0.3502978503657798 0  0.3502978503657798 0.367375468351841 0  0.3354032268212687 0.3863870506537689 0  0.322908794869358 0.4070553655912464 0  0.3129967514629171 0.4290790225914929 0  0.3058116365147896 0.4521368671424885 0  0.3014582251803892 0.4758926639489354 0  0.3 0.4999999999999999 0  0.3014582251803892 0.5241073360510646 0  0.3058116365147896 0.5478631328575115 0  0.3129967514629171 0.5709209774085071 0  0.3229087948693581 0.5929446344087538 0  0.3354032268212687 0.6136129493462312 0  0.3502978503657798 0.632624531648159 0  0.367375468351841 0.6497021496342202 0  0.3863870506537689 0.6645967731787313 0  0.4070553655912463 0.677091205130642 0  0.4290790225914929 0.6870032485370829 0  0.4521368671424885 0.6941883634852104 0  0.4758926639489354 0.6985417748196108 0  0.4999999999999999 0.7 0  0.5241073360510646 0.6985417748196108 0  0.5478631328575116 0.6941883634852104 0  0.5709209774085071 0.6870032485370829 0  0.5929446344087537 0.677091205130642 0  0.6136129493462312 0.6645967731787312 0  0.6326245316481591 0.6497021496342202 0  0.6497021496342202 0.632624531648159 0  0.6645967731787312 0.6136129493462312 0  0.677091205130642 0.5929446344087537 0  0.6870032485370829 0.5709209774085071 0  0.6941883634852104 0.5478631328575115 0  0 0.15 0  1 0.15 0  1 0.85 0  0 0.8500000000000001 0  0 0.075 0  1 0.075 0  1 0.925 0  0 0.925 0  0.5 0.8127595604293815 0  0.5069440078039168 0.190422209288238 0  0.25 0.3127595604293815 0  0.756944007803917 0.3095777907117619 0  0.756944007803917 0.6904222092882382 0  0.25 0.6872404395706185 0  0 0.225 0  0.4255768646051012 0.2241073097134061 0  1 0.7749999999999999 0  0.6773391559270888 0.2766774022734219 0  1 0.225 0  0.6755768646051011 0.7241073097134062 0  0 0.7750000000000001 0  0.5818971135297744 0.2287925518358889 0  0.8318971135297746 0.728792551835889 0  0.1659156081861886 0.7301636995921477 0  0.08376842746533225 0.2299656297760495 0  0.4236002201977974 0.7746535834185855 0  0.0840843918138115 0.7698363004078523 0  0.3340843918138113 0.7301636995921477 0  0.3340843918138114 0.2698363004078523 0  0.9159156081861887 0.2301636995921477 0  0.5840843918138116 0.7698363004078522 0  0.1659156081861887 0.2698363004078523 0  0.9162315725346678 0.7700343702239506 0  0.8340843918138114 0.2698363004078523 0  0.75 0.6146645247768686 0  0.5 0.1125158665330878 0  0.75 0.3874841334669124 0  0.2504983345544904 0.6122915843562002 0  0.2504983345544902 0.3877084156437999 0  0.5 0.8879783056303169 0  0.7005361650220154 0.3333055947145943 0  0.70416808765371 0.6599554817221275 0  0.449930214263529 0.1678187287522426 0  0.2247310981387008 0.7415600637745463 0  0.5155081196221678 0.7563797802146907 0  0.2752689018612993 0.2584399362254537 0  0.05605196690611226 0.8246131191226815 0  0.9439480330938878 0.1
[...]
<PointData  Scalars="Temperature"> 
<DataArray  type="Float64"  Name="Temperature"  format="ascii">7.7326020685971969e+01  7.8462225156786459e+01  7.8460353358522156e+01  7.8434550041453107e+01  7.8362382066559221e+01  7.8250108003592970e+01  7.8099840829649352e+01  7.7913036822274179e+01  7.7691404026669602e+01  7.7431607513483470e+01  7.7126278094023931e+01  7.6778855240586026e+01  7.6399446633645766e+01  7.5996443008879595e+01  7.5578056204864623e+01  7.5154726884071280e+01  7.4727238576305950e+01  7.4293443335051094e+01  7.3861310015753929e+01  7.3428145198812942e+01  7.3015323139863142e+01  7.2637639377169648e+01  7.2311074858830438e+01  7.2057876641963063e+01  7.1876341680030265e+01  7.1764061827091027e+01  7.1702279424943811e+01  7.1676688962760849e+01  7.1670258072095962e+01  7.1589826780264062e+01  7.1567565760289881e+01  7.1498204276243243e+01  7.1367650752196866e+01  7.1163945492938410e+01  7.0868642624763154e+01  7.0480460221691615e+01  7.0005926511446802e+01  6.9460879070251750e+01  6.8869705135761251e+01  6.8266710031699262e+01  6.7686353147500839e+01  6.7157260288163513e+01  6.6696508874258598e+01  6.6309006656089281e+01  6.5990478011100436e+01  6.5735941662227518e+01  6.5529669503370343e+01  6.5363846083436599e+01  6.5231012769883051e+01  6.5122640696936543e+01  6.5034759037999450e+01  6.4962664283326333e+01  6.4905522843910148e+01  6.4863059615612116e+01  6.4835789158224912e+01  6.4826056617886948e+01  6.4825262744971056e+01  6.5205669859449188e+01  6.5220330028410658e+01  6.5261847772667664e+01  6.5322784284005607e+01  6.5389169702935931e+01  6.5442194339334961e+01  6.5457122375202232e+01  6.5408789007624065e+01  6.5277586444760274e+01  6.5054775753068427e+01  6.4723266578190490e+01  6.4304341538496047e+01  6.3818355044908934e+01  6.3298053068953500e+01  6.2779577726255177e+01  6.2291992319100494e+01  6.1839708443367087e+01  6.1427484350300780e+01  6.1039161846704793e+01  6.0669177332321283e+01  6.0319693920112975e+01  5.9986743809579195e+01  5.9686594169969439e+01  5.9431025284360764e+01  5.9236837443165854e+01  5.9116799604711012e+01  5.9074664095355800e+01  5.8151137300711113e+01  5.8152553230230794e+01  5.8173390696954371e+01  5.8231833344223205e+01  5.8322782519162232e+01  5.8444872641923702e+01  5.8596569537652961e+01  5.8777925591618839e+01  5.8991500245765117e+01  5.9238593573638816e+01  5.9521796807975569e+01  5.9836161037002910e+01  6.0170187206449370e+01  6.0520925220934977e+01  6.0873659363480854e+01  6.1236304822228490e+01  6.1604474900966146e+01  6.1977113455956811e+01  6.2347544934191184e+01  6.2707289543431955e+01  6.3031237011078453e+01  6.3314304243849975e+01  6.3531321793407521e+01  6.3688561480132201e+01  6.3783380192933301e+01  6.3832127218782276e+01  6.3853278863076717e+01  6.3858205371948216e+01  6.3929364425551462e+01  6.3951512124560828e+01  6.4016843048820192e+01  6.4135322694944250e+01  6.4321191425619119e+01  6.4592152758134191e+01  6.4945235566366165e+01  6.5379650724918122e+01  6.5873888482472125e+01  6.6411953867137072e+01  6.6955924250306126e+01  6.7472787575285111e+01  6.7942329209620993e+01  6.8337590985195106e+01  6.8660285291750498e+01  6.8909430837596148e+01  6.9098412125821923e+01  6.9239303968908857e+01  6.9345036845393494e+01  6.9425356468793311e+01  6.9486973073266043e+01  6.9534600831543599e+01  6.9572743016769451e+01  6.9602117967662636e+01  6.9623998338422524e+01  6.9637355779049372e+01  6.9642389314850533e+01  6.9642548735011061e+01  6.9473275284018328e+01  6.9467153900356195e+01  6.9451159054613001e+01  6.9431582530614619e+01  6.9419088996356436e+01  6.9430025989669275e+01  6.9484810937823099e+01  6.9604796779784465e+01  6.9812215135644522e+01  7.0116860251656448e+01  7.0528074241272009e+01  7.1034498629294390e+01  7.1616276828512198e+01  7.2232898108386294e+01  7.2849104974313619e+01  7.3433784863478181e+01  7.3973298773977277e+01  7.4469256574007161e+01  7.4937372193213903e+01  7.5384090562906010e+01  7.5812166279568544e+01  7.6212646037786513e+01  7.6577435121947332e+01  7.6889560226625619e+01  7.7124135868073211e+01  7.7273699985129369e+01  6.2847356274272649e+01  6.3352094640492439e+01  6.3895709550161193e+01  6.4453447366471664e+01  6.5011089490712905e+01  6.5568333453880342e+01  6.6137257992862558e+01  6.6731285970682862e+01  6.7361196290518734e+01  6.8013383443919068e+01  6.8682062738697681e+01  6.9357758309065460e+01  7.0016295037127819e+01  7.0650561868468301e+01  7.1254429631251796e+01  7.1823804723634538e+01  7.2352651434584061e+01  7.2839925600508707e+01  7.3271957481715503e+01  7.3635738924915756e+01  7.3900500659994009e+01  7.4054395797038012e+01  7.4074910355612332e+01  7.3955173889420195e+01  7.3686268619680334e+01  7.3287097498594306e+01  7.2774576292461148e+01  7.2180143087660966e+01  7.1547371282970417e+01  7.0909857253650841e+01  7.0290660384720468e+01  6.9678267208238054e+01  6.9081399281931013e+01  6.8483493707516260e+01  6.7871757174539852e+01  6.7251178153731345e+01  6.6617152948961760e+01  6.5996800141020358e+01  6.5389905955080607e+01  6.4816405698437876e+01  6.4273101077701355e+01  6.3765001411955787e+01  6.3291531873283581e+01  6.2863674989012949e+01  6.2481684445012831e+01  6.2163903930248580e+01  6.1929335002329850e+01  6.1789860824028871e+01  6.1764677133226975e+01  6.1861954449678016e+01  6.2083050182211046e+01  6.2418057887319989e+01  7.7913813673302954e+01  6.5025637698979736e+01  5.8594507996836768e+01  6.9543473757067858e+01  7.8294306985870719e+01  6.4888308426170838e+01  5.8286986835831343e+01  6.9611183811628948e+01  6.4133291743963511e+01  7.1287033453524472e+01  7.4871368375597513e+01  6.6124467727303255e+01  6.1028096051060615e+01  6.8927298854334893e+01  7.7527174473492337e+01  7.2515947377857586e+01  5.8908775675223318e+01  6.7524544213196236e+01  6.5149755313104023e+01  6.1750980333630523e+01  6.9490471950855678e+01  6.9819741567822518e+01  6.0108765306385138e+01  6.9202881312747422e+01  7.7181051301185093e+01  6.5439775911601984e+01  6.9415941045891714e+01  6.7412316536700828e+01  7.3982862888218264e+01  6.5286004311946172e+01  6.2999193323770569e+01  7.6102417260621991e+01  5.9192286665944593e+01  6.5684515202993978e+01  6.1593758967809862e+01  7.1521165019263123e+01  6.5320699951335669e+01  6.9884225709654871e+01  7.4238070410986523e+01  6.4001645136012854e+01  6.6517938923494810e+01  6.1540769324440078e+01  7.2017576129029919e+01  6.8773977335582472e+01  6.3969152424090694e+01  7.4743103193490157e+01  6.9492413495313954e+01  6.5123499781679328e+01  7.7656769848873722e+01  5.8824175933846320e+01  7.1587584553047805e+01  6.1145655765087163e+01  6.6768847239129400e+01  6.4763927908230173e+01  6.9354375489622186e+01  7.5400374186712583e+01  6.8414453971848062e+01  7.4285550480123774e+01  6.3466314399937424e+01  7.1600508668364583e+01  6.4402549719054761e+01  6.2491699131081972e+01  7.3387547375445138e+01  7.1166688611774276e+01  6.3893008946732330e+01  6.3924328333975822e+01  7.5439388591685670e+01  6.8204247735518038e+01  7.0565976118520425e+01  6.1006561020178900e+01  6.5638817142026554e+01  6.8660436011959533e+01  7.3214411211677117e+01  7.3449801657767807e+01  6.2280819165776443e+01  6.2485110894052916e+01  6.8436943889160517e+01  6.0602947140275369e+01  6.6130997682889529e+01  6.3436069878554569e+01  7.1630558758562643e+01  7.2335331845473561e+01  6.6411264460166763e+01  6.6545060943027110e+01  7.0724850229784550e+01  5.9588827605322898e+01  5.9639338760728329e+01  6.4647938155049530e+01  7.6780731552593750e+01  6.9464578853752499e+01  6.5381186135923073e+01  6.9274180684336756e+01  7.6582329000135815e+01  6.9369130954063479e+01  6.5212646155474545e+01  6.5507319182774552e+01  5.9101530547466034e+01  7.7290083210754105e+01  6.5011734361694636e+01  5.8531186985603242e+01  7.7993724016276104e+01  6.9548613533855516e+01  6.5408711105504096e+01  6.0594271870426454e+01  7.1091282633078663e+01  6.1373863546899727e+01  6.2946690936350244e+01  6.7599256745202609e+01  7.6007035309526799e+01  6.5262267048898735e+01  7.3879068106392097e+01  6.9373459263712633e+01  6.9413096671282091e+01  7.7323751438214146e+01  5.9108327987267998e+01  6.9723457591695862e+01  7.4776838369027388e+01  6.3851425036093303e+01  6.0226924916796996e+01  7.4448267456462432e+01  6.9163820511454773e+01  6.7547723369653838e+01  6.7485672272825497e+01  6.5561365777375272e+01  7.2317526954658476e+01  6.1951918544206144e+01  7.2738667752646379e+01  6.1733910816279860e+01  6.4364252136225943e+01  6.5242345022614657e+01  6.9707895143042279e+01  6.6745881435403035e+01  6.0158750257934493e+01  6.9500407460990260e+01  6.8995986217737439e+01  7.4079692697898182e+01  6.7531892958431470e+01  7.5978694737319486e+01  6.5529962198402359e+01  6.3075495442841351e+01  7.1845870505734339e+01  7.7494644659450344e+01  6.5796842218252095e+01  6.5175736049176223e+01  6.9473569101936889e+01  6.3700196059432436e+01  6.9513041478528820e+01  6.5093530130168986e+01  6.5894283079343978e+01  5.8751243431077746e+01  7.1834999098378859e+01  6.5913345527409177e+01  6.5798940806743602e+01  7.1574883656646108e+01  7.7711906223112891e+01  6.1906008948317179e+01  6.1862299291786023e+01  6.1256352071137485e+01  7.0505365411699088e+01  7.4192803216820820e+01  6.9371198243020018e+01  7.4139946349378079e+01  6.9429205443459821e+01  7.1685316702392768e+01  7.1438231918384247e+01  6.4837596207896624e+01  6.5086579153925967e+01  6.3691189817263854e+01  6.3852578558053970e+01  6.4121091851289364e+01  5.8760149054287027e+01  6.9477777177540432e+01  5.8431371774907127e+01  6.5188038469210653e+01  7.7385283512810460e+01  6.4842005298059121e+01  7.8417907728093212e+01  6.4953567760251858e+01  6.4929614009438851e+01  7.8116480479465409e+01  5.8186877824815795e+01  6.9634188218235352e+01  5.9024568180366323e+01  6.9578775001939675e+01  6.9589812083642144e+01  7.3797494776272416e+01  7.0390487998025648e+01  6.9041607128098519e+01  7.4409234199136890e+01  6.4304239604887414e+01  5.9346523901197301e+01  6.8210812421239979e+01  7.5344300349486204e+01  6.0766500755436745e+01  6.1394495166796872e+01  6.4534605060193869e+01  5.8949265915355383e+01  6.3435622144937284e+01  7.0964080720500107e+01  6.9377933511727235e+01  7.4750466238858650e+01  7.6573500611502297e+01  6.9162969762054360e+01  7.1072834237247264e+01  6.6284109198681080e+01  6.5744878768016321e+01  6.3615133416252306e+01  6.1659634688075826e+01  6.1763128241559180e+01  5.8370320901481868e+01  7.8191244177324947e+01  7.6984618954121288e+01  6.0637281567037078e+01  6.8469976610481453e+01  7.5295148578425852e+01  6.5504269640151790e+01  7.0446744586121042e+01  6.1595147318153494e+01  6.5283696244824725e+01  6.6400915700649719e+01  7.2972827911977959e+01  6.2093136291717308e+01  6.5846054140975809e+01  7.8357124607237495e+01  6.4875572608205275e+01  5.8236456599643041e+01  6.9622493205881227e+01  6.6124757733526607e+01  6.2227191524904129e+01  7.2077297316364778e+01  6.9506218345651675e+01  6.9521618247429785e+01  6.5090110756845689e+01  6.5070731228031747e+01  6.6898731328485411e+01  7.7605694936029437e+01  7.7428389835880949e+01  7.7786940645534443e+01  7.2358231030556638e+01  7.2238435070693612e+01  7.7045156026106525e+01  6.4571369105808913e+01  6.9395628455391403e+01  6.9309778898955642e+01  6.5410971493403494e+01  6.7069409251137571e+01  6.6450535321344574e+01  7.3187516663588042e+01  6.2282521416328926e+01  5.8666443811140887e+01  6.1695370545289663e+01  6.1309962142927944e+01  7.0092513112371662e+01  6.3866179866550546e+01  6.5501852643403311e+01  7.1651425286600571e+01  7.1593515759304765e+01  6.3915116589435243e+01  6.4181071115972756e+01  7.2873667783577673e+01  7.3157012696958375e+01  6.7147734120941976e+01  5.9883868994789346e+01  6.3957562395333120e+01  6.8562532680084971e+01  7.4334747484019260e+01  6.6977420451672572e+01  7.5696939205545348e+01  6.7982091661100952e+01  6.8586933768406539e+01  6.9043283699877946e+01  7.4563515077256056e+01  7.5009914907836361e+01  6.8726891033086929e+01  6.3221781900075918e+01  6.3457715182987194e+01  7.4554736935357099e+01  6.9254405214415613e+01  7.4157818302145756e+01  7.5576137486066770e+01  6.8220152639647509e+01  6.9590807164339608e+01  6.3789261575570535e+01  6.2955442184132657e+01  6.3037496949999444e+01  7.1867582022272231e+01  7.1754931398574968e+01  7.6427826248593448e+01  6.1493012854320455e+01  6.1336743337784519e+01  6.1090824130787489e+01  7.2829069663135598e+01  6.2071536278009233e+01  6.4090439929450426e+01  7.2765948729380668e+01  6.4726397249798950e+01  6.5022593847864556e+01  6.6337103499767878e+01  7.1552097971847729e+01  7.1428781536492039e+01  6.7086875002594638e+01  6.7996999105821530e+01  5.8991849050291826e+01  7.6959515548459393e+01  6.5420338755970420e+01  7.0688374021954061e+01  5.9678140131570039e+01  5.9370043902590474e+01  6.5851631244207582e+01  6.5678163177640286e+01  6.5610875719946847e+01  6.9141266192013219e+01  7.3471605268567686e+01  7.3685228517778839e+01  6.2554737488910767e+01  6.2690579892742981e+01  6.6115173905767790e+01  7.0021594305613007e+01  7.1346262363919408e+01  6.9271214995475887e+01  6.5397115253437406e+01  6.1930218233055676e+01  6.5215494234563366e+01  6.9453059721940875e+01  7.0373094005362290e+01  5.8151853960943981e+01  6.4825635632384049e+01  7.8461437958858042e+01  6.9642524485448334e+01  7.1662640854925129e+01  6.9021846201989902e+01  7.3617817191336826e+01  6.5160895628422438e+01  6.1962660327626239e+01  6.5473087045023718e+01  7.1522720373284514e+01  7.1673255202392610e+01  7.3866564652615708e+01  6.6059813679652621e+01  5.9934458547791479e+01  5.9729102632960611e+01  5.9441521136238691e+01  5.9897299018402030e+01  6.2718859333657299e+01  7.3706947757402673e+01  7.0117669440252527e+01  6.3899254128963449e+01  6.3868763707449027e+01  6.3964707653776401e+01  6.2523617222976974e+01  6.2321652428055138e+01  7.1150406628352314e+01  7.0977867931153312e+01  7.6298089158961886e+01  7.4117796413668529e+01  6.5992547639656223e+01  7.6897518343769860e+01  6.9200899103584362e+01  6.6970754544822796e+01  6.4904916815989409e+01  7.7441311160057595e+01  7.2084745780271675e+01  6.1040553507334351e+01  6.0977668983359266e+01  5.8912987885608459e+01  6.8890119968619032e+01  7.5808273941737369e+01  6.7815289670245690e+01  6.9183205416196984e+01  6.9298272463031267e+01  6.9355273932971130e+01  7.2545318740129886e+01  6.3620298145395388e+01  7.7810172232122298e+01  5.9308788078981983e+01  7.3698893318490946e+01  6.8068109751117959e+01  6.9496415479771244e+01  6.5119926846188719e+01  6.1320745879876448e+01  6.7029991244090880e+01  7.4023701574227744e+01  6.3176859429678117e+01  7.5177011040571244e+01  6.4399521764208387e+01  5.8987491486347018e+01  6.9410810864860380e+01  6.8080384942566397e+01  7.3373754994566980e+01  6.5340208154982193e+01  7.1564226541524121e+01  6.4843059121576331e+01  6.9636504856240450e+01  7.8430704556368468e+01  5.8176264074368078e+01  6.8464860308707557e+01  6.5574111631531039e+01  5.9583358623657944e+01  6.5631460546291223e+01  6.9320379949170103e+01  6.7970875249581709e+01  6.5290174205684480e+01  6.2812412541030120e+01  7.7151020786591332e+01  6.9444364274534664e+01  6.9400011495055068e+01  6.8784213411272304e+01  6.5883886821667176e+01  6.6502111165361626e+01  6.7129514855011806e+01  6.9460415424734791e+01  6.5233021748311046e+01  6.9480336678761105e+01  6.5110563714717216e+01  7.0902491788925261e+01  7.4947206051640805e+01  6.9971780590883597e+01  6.0423796606419195e+01  7.5089740593528006e+01  6.4080108802421108e+01  6.0306061697224152e+01  6.0865034755290303e+01  6.0838036636615101e+01  6.6549707203383619e+01  6.4042611786182363e+01  5.9082971741294330e+01  7.1334787067471368e+01  7.5725581663665238e+01  6.7740335931292165e+01  6.4170341182404101e+01  6.1764919920802242e+01  6.9807775160570273e+01  6.9362078291695880e+01  5.8832490900897724e+01  7.4694242462465581e+01  6.8754084944438205e+01  7.1602397311417064e+01  6.3918146949454631e+01  7.1658650351494174e+01  7.1162374102257502e+01  7.6195325529455388e+01  6.5183880897111493e+01  6.9465227151368339e+01  6.9439836340279157e+01  6.5232249594536128e+01  6.5171719757979915e+01  6.5170231311065251e+01  5.8921303523252774e+01  7.7646148076625622e+01  6.9124715488448444e+01  7.4573593311458481e+01  6.3845538148087734e+01  7.1157403835959499e+01  7.0257443458983474e+01  6.8639196873797843e+01  7.2045667134120436e+01  7.4103496704702550e+01  7.5129892895170059e+01  6.5432614864258639e+01  6.9565950072803801e+01  6.4997144038535325e+01  6.0004857926344222e+01  6.9454869882665918e+01  6.4977487586754791e+01  7.6751587168439514e+01  6.5355487795309131e+01  7.6367873085463771e+01  7.6636785596685712e+01  5.9212637100786367e+01  5.9080096137910978e+01  7.7317988105600648e+01  7.7337104074549927e+01  7.3261069874377228e+01  6.5153325211488152e+01  6.4736728602931180e+01  6.5267968694732701e+01  6.5097333088976782e+01  6.4328335485363411e+01  6.6454357878959883e+01  5.8726728022836824e+01  6.3653062421583606e+01  6.5949081945848292e+01  7.4278573975424806e+01  7.2922609794018086e+01  6.5551192033093528e+01  6.3912278554559663e+01  6.3764163680518713e+01  6.4810490400680266e+01  6.1412732162001610e+01  7.3940691125163596e+01  7.1803130181075389e+01  6.9494579897515166e+01  6.9871935428391652e+01  6.9705034267311333e+01  7.4546495251163293e+01  5.8511414987050216e+01  7.8016580873947333e+01  7.7925561560066512e+01  7.7934732298853021e+01  5.8614348535853956e+01  5.8450798167458963e+01  6.0137974176998156e+01  6.8820334526221473e+01  6.0511630098823382e+01  7.0645049446144867e+01  6.1625908641616959e+01  6.5066939073637968e+01  6.5023986440984828e+01  6.9522922704391092e+01  6.9560696935605563e+01  6.9544270638233670e+01  6.3838662774622414e+01  7.8093832452710345e+01  6.9571799546581332e+01  6.4966880105303801e+01  5.9312498078670117e+01  7.0871024377088204e+01  6.4297767199172853e+01  7.0081226406685460e+01  7.4481497576020402e+01  6.9509697065395940e+01  6.5200189818771733e+01  6.9474236287646832e+01  6.2601387177229306e+01  6.0780662132600213e+01  6.0809173268564670e+01  6.0306781356304498e+01  7.5603592702435137e+01  6.4064636338399481e+01  7.7229817757110055e+01  6.0497639004637804e+01  6.9377534370912684e+01  6.5306305588567881e+01  7.0106354381796322e+01  7.0816366975202385e+01  5.8561825444131209e+01  6.4506983769641707e+01  7.7205453283248886e+01  6.1026361419530417e+01  6.4829029833301007e+01  6.2224608810972185e+01  7.3785050062901703e+01  6.7947034269312837e+01  6.3486072132662144e+01  6.4378279915881265e+01  6.3403971479168732e+01  6.5289483947911620e+01  7.5728706217689606e+01  7.2388888550218169e+01  6.7230028179479248e+01  6.5849797567612740e+01  6.5478515215535552e+01  6.6066110632533565e+01  6.6181711819589808e+01  6.3988380970767111e+01  6.8998917539005802e+01  6.9419235396315713e+01  6.7453707071890975e+01  6.5201182302523009e+01  6.9472226055966701e+01  6.5342287155108735e+01  7.4678360788149917e+01  6.9106210944670096e+01  7.1686275298436357e+01  7.1626219411199813e+01  7.1939426883842003e+01  6.5844878323361797e+01  6.5574110560927579e+01  6.1496446858018743e+01  6.1518173155715516e+01  6.1282577210149526e+01  6.6908297890686768e+01  5.9062695950859371e+01  6.5183929295842532e+01  6.7680325544434425e+01  7.7251285482028337e+01  7.7508584917169316e+01  7.6292002748603963e+01  6.7504226089707331e+01  6.7978899725686560e+01  6.7573137449700681e+01  6.5285013539086947e+01  6.2889488640830578e+01  7.5896089854673662e+01  7.3803863430270468e+01  5.9109821879128638e+01  7.1948710727683064e+01  7.2421314353873925e+01  6.5561956723118257e+01  7.5554945654525000e+01  6.2074082669314151e+01  7.2557258736638502e+01  6.1879270998270606e+01  7.2640747208612368e+01  6.5410991764285399e+01  6.5730488538816047e+01  6.3208696398166268e+01  7.4071693947044793e+01  6.3066928013731783e+01  6.1772547633884663e+01  6.5870094209343861e+01  6.5423606586214476e+01  7.4099924200927362e+01  6.4137799937421647e+01  6.7556848728249193e+01  7.1667512596080940e+01  6.7565585221944772e+01  6.3022850316259955e+01  7.2464103993445377e+01  5.8450837962244805e+01  7.8056957437423165e+01  7.194