<?xml version="1.0"?>
<VTKFile type="UnstructuredGrid"  version="0.1"  >
<UnstructuredGrid>
<Piece  NumberOfPoints="2331" NumberOfCells="4248">
<Points>
<DataArray  type="Float64"  NumberOfComponents="3"  format="ascii">0 0.3 0  0 0 0  0.04999999999999999 0 0  0.0514582251803892 0.02410733605106462 0  0.0558116365147896 0.04786313285751154 0  0.06299675146291706 0.07092097740850717 0  0.07290879486935808 0.09294463440875382 0  0.08540322682126872 0.1136129493462312 0  0.1002978503657798 0.132624531648159 0  0.117375468351841 0.1497021496342203 0  0.1363870506537689 0.1645967731787313 0  0.1570553655912463 0.177091205130642 0  0.1790790225914929 0.187003248537083 0  0.2021368671424885 0.1941883634852104 0  0.2258926639489354 0.1985417748196108 0  0.25 0.2 0  0.2741073360510646 0.1985417748196108 0  0.2978631328575116 0.1941883634852104 0  0.3209209774085071 0.187003248537083 0  0.3429446344087537 0.177091205130642 0  0.3636129493462312 0.1645967731787313 0  0.3826245316481591 0.1497021496342202 0  0.3997021496342202 0.132624531648159 0  0.4145967731787313 0.1136129493462312 0  0.427091205130642 0.09294463440875371 0  0.4370032485370829 0.07092097740850713 0  0.4441883634852104 0.04786313285751155 0  0.4485417748196108 0.02410733605106461 0  0.45 0 0  0.55 0 0  0.5514582251803892 0.02410733605106462 0  0.5558116365147896 0.04786313285751154 0  0.5629967514629171 0.07092097740850717 0  0.5729087948693581 0.09294463440875382 0  0.5854032268212688 0.1136129493462312 0  0.6002978503657798 0.132624531648159 0  0.617375468351841 0.1497021496342203 0  0.6363870506537689 0.1645967731787313 0  0.6570553655912463 0.177091205130642 0  0.6790790225914929 0.187003248537083 0  0.7021368671424885 0.1941883634852104 0  0.7258926639489354 0.1985417748196108 0  0.75 0.2 0  0.7741073360510646 0.1985417748196108 0  0.7978631328575116 0.1941883634852104 0  0.8209209774085071 0.187003248537083 0  0.8429446344087537 0.177091205130642 0  0.8636129493462312 0.1645967731787313 0  0.8826245316481591 0.1497021496342202 0  0.8997021496342202 0.132624531648159 0  0.9145967731787312 0.1136129493462312 0  0.927091205130642 0.09294463440875371 0  0.9370032485370829 0.07092097740850713 0  0.9441883634852104 0.04786313285751155 0  0.9485417748196108 0.02410733605106461 0  0.95 0 0  1 0 0  1 0.3 0  0.9758926639489353 0.3014582251803892 0  0.9521368671424885 0.3058116365147896 0  0.9290790225914928 0.3129967514629171 0  0.9070553655912461 0.3229087948693581 0  0.8863870506537688 0.3354032268212687 0  0.867375468351841 0.3502978503657798 0  0.8502978503657798 0.367375468351841 0  0.8354032268212687 0.3863870506537689 0  0.822908794869358 0.4070553655912464 0  0.8129967514629171 0.4290790225914929 0  0.8058116365147896 0.4521368671424885 0  0.8014582251803892 0.4758926639489354 0  0.8 0.4999999999999999 0  0.8014582251803892 0.5241073360510646 0  0.8058116365147896 0.5478631328575115 0  0.8129967514629171 0.5709209774085071 0  0.8229087948693581 0.5929446344087538 0  0.8354032268212688 0.6136129493462312 0  0.8502978503657798 0.632624531648159 0  0.867375468351841 0.6497021496342202 0  0.8863870506537689 0.6645967731787313 0  0.9070553655912463 0.677091205130642 0  0.9290790225914929 0.6870032485370829 0  0.9521368671424885 0.6941883634852104 0  0.9758926639489354 0.6985417748196108 0  1 0.7 0  1 1 0  0.95 1 0  0.9485417748196108 0.9758926639489353 0  0.9441883634852104 0.9521368671424885 0  0.9370032485370829 0.9290790225914928 0  0.927091205130642 0.9070553655912463 0  0.9145967731787312 0.8863870506537688 0  0.8997021496342201 0.8673754683518409 0  0.882624531648159 0.8502978503657798 0  0.863612949346231 0.8354032268212686 0  0.8429446344087537 0.822908794869358 0  0.8209209774085071 0.8129967514629171 0  0.7978631328575114 0.8058116365147896 0  0.7741073360510646 0.8014582251803892 0  0.75 0.8 0  0.7258926639489353 0.8014582251803892 0  0.7021368671424885 0.8058116365147896 0  0.6790790225914928 0.8129967514629171 0  0.6570553655912461 0.8229087948693581 0  0.6363870506537688 0.8354032268212688 0  0.617375468351841 0.8502978503657798 0  0.6002978503657798 0.867375468351841 0  0.5854032268212687 0.8863870506537689 0  0.572908794869358 0.9070553655912463 0  0.5629967514629171 0.9290790225914929 0  0.5558116365147896 0.9521368671424885 0  0.5514582251803892 0.9758926639489355 0  0.55 0.9999999999999999 0  0.45 0.9999999999999999 0  0.4485417748196108 0.9758926639489353 0  0.4441883634852104 0.9521368671424885 0  0.4370032485370829 0.9290790225914928 0  0.427091205130642 0.9070553655912463 0  0.4145967731787313 0.8863870506537688 0  0.3997021496342201 0.8673754683518409 0  0.382624531648159 0.8502978503657798 0  0.363612949346231 0.8354032268212686 0  0.3429446344087536 0.822908794869358 0  0.3209209774085071 0.8129967514629171 0  0.2978631328575115 0.8058116365147896 0  0.2741073360510646 0.8014582251803892 0  0.25 0.8 0  0.2258926639489353 0.8014582251803892 0  0.2021368671424885 0.8058116365147896 0  0.1790790225914928 0.8129967514629171 0  0.1570553655912462 0.8229087948693581 0  0.1363870506537688 0.8354032268212688 0  0.117375468351841 0.8502978503657798 0  0.1002978503657797 0.867375468351841 0  0.08540322682126869 0.8863870506537689 0  0.07290879486935797 0.9070553655912463 0  0.06299675146291703 0.9290790225914929 0  0.05581163651478957 0.9521368671424885 0  0.0514582251803892 0.9758926639489355 0  0.04999999999999999 0.9999999999999999 0  0 1 0  -0 0.7000000000000001 0  0.0241073360510646 0.6985417748196108 0  0.04786313285751161 0.6941883634852104 0  0.07092097740850711 0.6870032485370829 0  0.09294463440875372 0.677091205130642 0  0.1136129493462312 0.6645967731787312 0  0.1326245316481591 0.6497021496342202 0  0.1497021496342202 0.632624531648159 0  0.1645967731787313 0.6136129493462312 0  0.177091205130642 0.5929446344087537 0  0.187003248537083 0.5709209774085071 0  0.1941883634852104 0.5478631328575115 0  0.1985417748196108 0.5241073360510646 0  0.2 0.5 0  0.1985417748196108 0.4758926639489353 0  0.1941883634852104 0.4521368671424885 0  0.1870032485370829 0.4290790225914928 0  0.177091205130642 0.4070553655912463 0  0.1645967731787313 0.3863870506537688 0  0.1497021496342202 0.3673754683518409 0  0.132624531648159 0.3502978503657798 0  0.113612949346231 0.3354032268212686 0  0.09294463440875361 0.322908794869358 0  0.07092097740850711 0.3129967514629171 0  0.04786313285751148 0.3058116365147896 0  0.02410733605106464 0.3014582251803892 0  0.6985417748196108 0.5241073360510646 0  0.7 0.5 0  0.6985417748196108 0.4758926639489353 0  0.6941883634852104 0.4521368671424885 0  0.6870032485370829 0.4290790225914928 0  0.677091205130642 0.4070553655912463 0  0.6645967731787312 0.3863870506537688 0  0.6497021496342201 0.3673754683518409 0  0.632624531648159 0.3502978503657798 0  0.613612949346231 0.3354032268212686 0  0.5929446344087537 0.322908794869358 0  0.5709209774085071 0.3129967514629171 0  0.5478631328575114 0.3058116365147896 0  0.5241073360510646 0.3014582251803892 0  0.4999999999999999 0.3 0  0.4758926639489353 0.3014582251803892 0  0.4521368671424885 0.3058116365147896 0  0.4290790225914928 0.3129967514629171 0  0.4070553655912462 0.3229087948693581 0  0.3863870506537688 0.3354032268212687 0  0.367375468351841 0.3502978503657798 0  0.3502978503657798 0.367375468351841 0  0.3354032268212687 0.3863870506537689 0  0.322908794869358 0.4070553655912464 0  0.3129967514629171 0.4290790225914929 0  0.3058116365147896 0.4521368671424885 0  0.3014582251803892 0.4758926639489354 0  0.3 0.4999999999999999 0  0.3014582251803892 0.5241073360510646 0  0.3058116365147896 0.5478631328575115 0  0.3129967514629171 0.5709209774085071 0  0.3229087948693581 0.5929446344087538 0  0.3354032268212687 0.6136129493462312 0  0.3502978503657798 0.632624531648159 0  0.367375468351841 0.6497021496342202 0  0.3863870506537689 0.6645967731787313 0  0.4070553655912463 0.677091205130642 0  0.4290790225914929 0.6870032485370829 0  0.4521368671424885 0.6941883634852104 0  0.4758926639489354 0.6985417748196108 0  0.4999999999999999 0.7 0  0.5241073360510646 0.6985417748196108 0  0.5478631328575116 0.6941883634852104 0  0.5709209774085071 0.6870032485370829 0  0.5929446344087537 0.677091205130642 0  0.6136129493462312 0.6645967731787312 0  0.6326245316481591 0.6497021496342202 0  0.6497021496342202 0.632624531648159 0  0.6645967731787312 0.6136129493462312 0  0.677091205130642 0.5929446344087537 0  0.6870032485370829 0.5709209774085071 0  0.6941883634852104 0.5478631328575115 0  0 0.15 0  1 0.15 0  1 0.85 0  0 0.8500000000000001 0  0 0.075 0  1 0.075 0  1 0.925 0  0 0.925 0  0.5 0.8127595604293815 0  0.5069440078039168 0.190422209288238 0  0.25 0.3127595604293815 0  0.756944007803917 0.3095777907117619 0  0.756944007803917 0.6904222092882382 0  0.25 0.6872404395706185 0  0 0.225 0  0.4255768646051012 0.2241073097134061 0  1 0.7749999999999999 0  0.6773391559270888 0.2766774022734219 0  1 0.225 0  0.6755768646051011 0.7241073097134062 0  0 0.7750000000000001 0  0.5818971135297744 0.2287925518358889 0  0.8318971135297746 0.728792551835889 0  0.1659156081861886 0.7301636995921477 0  0.08376842746533225 0.2299656297760495 0  0.4236002201977974 0.7746535834185855 0  0.0840843918138115 0.7698363004078523 0  0.3340843918138113 0.7301636995921477 0  0.3340843918138114 0.2698363004078523 0  0.9159156081861887 0.2301636995921477 0  0.5840843918138116 0.7698363004078522 0  0.1659156081861887 0.2698363004078523 0  0.9162315725346678 0.7700343702239506 0  0.8340843918138114 0.2698363004078523 0  0.75 0.6146645247768686 0  0.5 0.1125158665330878 0  0.75 0.3874841334669124 0  0.2504983345544904 0.6122915843562002 0  0.2504983345544902 0.3877084156437999 0  0.5 0.8879783056303169 0  0.7005361650220154 0.3333055947145943 0  0.70416808765371 0.6599554817221275 0  0.449930214263529 0.1678187287522426 0  0.2247310981387008 0.7415600637745463 0  0.5155081196221678 0.7563797802146907 0  0.2752689018612993 0.2584399362254537 0  0.05605196690611226 0.8246131191226815 0  0.9439480330938878 0.1
[...]
<PointData  Scalars="Temperature"> 
<DataArray  type="Float64"  Name="Temperature"  format="ascii">9.5343820867301872e+01  9.8950178282444398e+01  9.8944204621809561e+01  9.8861834048818366e+01  9.8631524986970561e+01  9.8273450382661878e+01  9.7794661967376726e+01  9.7200239512393665e+01  9.6495874914334351e+01  9.5671179454040953e+01  9.4702652696184629e+01  9.3600336682178408e+01  9.2394677407387817e+01  9.1110163708849868e+01  8.9769747893477160e+01  8.8404792986108077e+01  8.7017739538316917e+01  8.5603364929398722e+01  8.4190649035031740e+01  8.2774573699982824e+01  8.1425806955111625e+01  8.0191402960370525e+01  7.9121940974405575e+01  7.8286150422154321e+01  7.7678461151784504e+01  7.7291224287503482e+01  7.7068804864700525e+01  7.6968836333713028e+01  7.6941935249293564e+01  7.6695881803134483e+01  7.6635485010345832e+01  7.6444761128140527e+01  7.6079359586124610e+01  7.5500825113769594e+01  7.4652408008468427e+01  7.3529248421300565e+01  7.2151803235202792e+01  7.0566296669898264e+01  6.8843945953641068e+01  6.7082197431392828e+01  6.5375985611755340e+01  6.3802961677870179e+01  6.2405722758473530e+01  6.1196268311632657e+01  6.0166419023933685e+01  5.9308776148371557e+01  5.8584982099495960e+01  5.7982261803984450e+01  5.7486096598502805e+01  5.7072951803194087e+01  5.6733055307651092e+01  5.6451516280883403e+01  5.6226962244881868e+01  5.6059638089823352e+01  5.5952052611747767e+01  5.5913641186327794e+01  5.5910529592322959e+01  5.7478640287274104e+01  5.7542013266290638e+01  5.7723947518320337e+01  5.8001511356451935e+01  5.8330186842844498e+01  5.8652649194337421e+01  5.8894931117898103e+01  5.8988655820575623e+01  5.8876979268057788e+01  5.8537898761059118e+01  5.7934059880087801e+01  5.7123010706171456e+01  5.6158117419204075e+01  5.5118790128407049e+01  5.4086959192280474e+01  5.3119992445990995e+01  5.2222948650745039e+01  5.1400260003827952e+01  5.0613196914009613e+01  4.9848897551403176e+01  4.9114901548695563e+01  4.8405291805325028e+01  4.7759601723277306e+01  4.7206425349789576e+01  4.6784713782112000e+01  4.6523562522771712e+01  4.6431814813349867e+01  4.4443190017754056e+01  4.4446249850057789e+01  4.4491172949388158e+01  4.4617237507099716e+01  4.4813671748944202e+01  4.5077909072510266e+01  4.5407399327043585e+01  4.5803152467576567e+01  4.6271806954819468e+01  4.6817868423930491e+01  4.7449248833622867e+01  4.8158627209685314e+01  4.8923950843229171e+01  4.9743367995422958e+01  5.0587068173785134e+01  5.1475954382203660e+01  5.2397893870574997e+01  5.3346916236491630e+01  5.4301016807198884e+01  5.5232708379257836e+01  5.6074195691175717e+01  5.6810329519473889e+01  5.7375332473457640e+01  5.7785169644413109e+01  5.8033027846672105e+01  5.8161188506940817e+01  5.8217218615720320e+01  5.8230413680818735e+01  5.8413733378345270e+01  5.8470247613285260e+01  5.8637074313125773e+01  5.8940068788924954e+01  5.9416044995603713e+01  6.0110830037145199e+01  6.1016854374791492e+01  6.2131950439963347e+01  6.3400347002028582e+01  6.4779829302667792e+01  6.6171317454652211e+01  6.7487826083604091e+01  6.8674624523569236e+01  6.9662024783358902e+01  7.0453145851506278e+01  7.1046318416388104e+01  7.1479960084617872e+01  7.1788076201944023e+01  7.2006831916666513e+01  7.2164370864067251e+01  7.2278932953590541e+01  7.2363082282975867e+01  7.2427923353059924e+01  7.2476311491693068e+01  7.2511719738616605e+01  7.2533143778721211e+01  7.2541188217603562e+01  7.2541460281933482e+01  7.2315500690827179e+01  7.2308562990473803e+01  7.2292903976764464e+01  7.2282979209029122e+01  7.2304692339185152e+01  7.2397025071227631e+01  7.2611066886300307e+01  7.3000204984316056e+01  7.3622112991025702e+01  7.4501863200972139e+01  7.5665122112889492e+01  7.7081682072805989e+01  7.8700590780180491e+01  8.0412718583555559e+01  8.2124770528235857e+01  8.3755385949940049e+01  8.5272740401005578e+01  8.6687752846006362e+01  8.8048729196287667e+01  8.9371532333499800e+01  9.0661363064256321e+01  9.1884748371808755e+01  9.3010168232929999e+01  9.3979744728990980e+01  9.4711849746059642e+01  9.5179902707429022e+01  5.4259903347203789e+01  5.5269258359572198e+01  5.6388875568969056e+01  5.7576962798938311e+01  5.8813829350955054e+01  6.0114523342259709e+01  6.1516417859919919e+01  6.3050093540288188e+01  6.4742683987664861e+01  6.6546420105589860e+01  6.8438551523160513e+01  7.0384679641710051e+01  7.2311484945092175e+01  7.4196108365465946e+01  7.6017622610719158e+01  7.7765204679093756e+01  7.9416952024659338e+01  8.0966959832005287e+01  8.2367048100244062e+01  8.3574531813749033e+01  8.4489320483834632e+01  8.5074486637126213e+01  8.5259765354335485e+01  8.5024308658776903e+01  8.4346934383345882e+01  8.3284201783213049e+01  8.1890538475659739e+01  8.0260150192679674e+01  7.8520015213470657e+01  7.6768920641586334e+01  7.5075764548434663e+01  7.3414455265360601e+01  7.1810947658147327e+01  7.0220681868150805e+01  6.8609675310362945e+01  6.6988229659841181e+01  6.5339759226617062e+01  6.3732089181738388e+01  6.2161616317603198e+01  6.0677601740545214e+01  5.9269822119279922e+01  5.7949357503668473e+01  5.6712948132893516e+01  5.5586291818879161e+01  5.4566456850437334e+01  5.3697845549079958e+01  5.3021772362767763e+01  5.2566398680352769e+01  5.2371060589675849e+01  5.2452660696342491e+01  5.2812814773668485e+01  5.3428554150692328e+01  9.7202639130558779e+01  5.6708845535245835e+01  4.5399401633468862e+01  7.2387556912528041e+01  9.8414305875848015e+01  5.6159879991780187e+01  4.4736049354512659e+01  7.2491672877264946e+01  5.8921744306375700e+01  7.6000861412750751e+01  8.7652154114422061e+01  6.1038883175082454e+01  5.0777889703277474e+01  7.1281005360144349e+01  9.5977420195733600e+01  7.9867034092891672e+01  4.6075837788805551e+01  6.5041738699180584e+01  5.7227641341327207e+01  5.2683288446743788e+01  7.2322453468511398e+01  7.1668450020340728e+01  4.8722572747455580e+01  7.1811519607823755e+01  9.4884566856305113e+01  6.2288263471617888e+01  7.2187964198562810e+01  6.7372193994650502e+01  8.4648766425095701e+01  5.7757039007180637e+01  5.5971340744854054e+01  9.1495709788904946e+01  4.6699638776775338e+01  5.9329799475101609e+01  5.1822978115538930e+01  7.6588763549070180e+01  5.9334956347907116e+01  7.3919922621404396e+01  8.5929130574551650e+01  5.8592592478532154e+01  6.2359328425811299e+01  5.1941965364145332e+01  7.8219398509248919e+01  7.0783423765177162e+01  5.8487289085301029e+01  8.7115016241330039e+01  7.2301550007625693e+01  5.7093595342675563e+01  9.6386692123947483e+01  4.5897266584801791e+01  7.6996538493104822e+01  5.1196403113168870e+01  6.2732145668296496e+01  6.0549477668653331e+01  7.2332555797689778e+01  8.9365704494211741e+01  7.0003609326079754e+01  8.5761993695541506e+01  5.7198706327772186e+01  7.6757117378581043e+01  5.7395655644410823e+01  5.3538848851390391e+01  8.3595077788084623e+01  7.7462989516703203e+01  5.8320149659819634e+01  5.8398770537169483e+01  8.9377916852636133e+01  6.9381959343519085e+01  7.3813519859566028e+01  5.0599252034633423e+01  5.9543794514330443e+01  6.8271898618066530e+01  8.2145402384454783e+01  8.2867064972702465e+01  5.4106753928637097e+01  5.4603041827440798e+01  6.7697897049678531e+01  4.9873917345674357e+01  6.0727602879037626e+01  5.5416811075590985e+01  7.6820024024304104e+01  8.0692189830969951e+01  6.4785663025345386e+01  6.5144406926830243e+01  7.4363937967702242e+01  4.7584702899611976e+01  4.7670417806968246e+01  6.0246118991416580e+01  9.3634387634162096e+01  7.2292004571923584e+01  5.8205677521577663e+01  7.1893659697417164e+01  9.2986415452763381e+01  7.2156473614155729e+01  5.7495005015087081e+01  5.8562042596912491e+01  4.6493411666854414e+01  9.5230908600119079e+01  5.6647943010215251e+01  4.5263969682011769e+01  9.7456815568287723e+01  7.2390892051807967e+01  5.9282864930708037e+01  4.9771741130153458e+01  7.5322405067580760e+01  5.1668212944400757e+01  5.5849066876190768e+01  6.7884079727909011e+01  9.1237492378014863e+01  5.7621768036305021e+01  8.4367598117198128e+01  7.2284739705620026e+01  7.2152774946515919e+01  9.5330902926207500e+01  4.6524901914480125e+01  7.3412049121613833e+01  8.7535974876055647e+01  5.8199643600606279e+01  4.8938188478544220e+01  8.6411306930143155e+01  7.1975298633863645e+01  6.5010454005502652e+01  6.5033794316703847e+01  6.2599281373043979e+01  7.9283486547763985e+01  5.3143713768727352e+01  8.0540791374530400e+01  5.2702998329464059e+01  5.9524610626796772e+01  6.1779798653592394e+01  7.1385031799082611e+01  6.2822735705414011e+01  4.8877094224069694e+01  7.0698761998465187e+01  7.1276811799153577e+01  8.4921188457087155e+01  6.7652022432166092e+01  9.1070100222128417e+01  5.8963727822347195e+01  5.6154154393485932e+01  7.7740987492374074e+01  9.5874445029272877e+01  5.9573022202565689e+01  5.7320628609299753e+01  7.2286157047028269e+01  5.7797542261835773e+01  7.2346414472131940e+01  5.6988044432151469e+01  6.0141320059994491e+01  4.5742625238489204e+01  7.7580864614176264e+01  6.0699245210661601e+01  6.0600183107239786e+01  7.6818749490156534e+01  9.6561801833803258e+01  5.2378144171865237e+01  5.2393408216588753e+01  5.1190293185312171e+01  7.5618135419329008e+01  8.5871510735272423e+01  7.2571876296925907e+01  8.5518129666740307e+01  7.2251413851483932e+01  7.7053285410812038e+01  7.6298246705280548e+01  5.8222845551641861e+01  5.8930990934513787e+01  5.7789427417187312e+01  5.8211172195556365e+01  5.8902326033348409e+01  4.5756309889931536e+01  7.2315818394719599e+01  4.5047526419899121e+01  5.7398387283055065e+01  9.5530152125723490e+01  5.5976683437320823e+01  9.8808696367544229e+01  5.6419211379591673e+01  5.6322811405485574e+01  9.7847504723389818e+01  4.4520212739672246e+01  7.2528162858110306e+01  4.6324368115202823e+01  7.2440870652703950e+01  7.2457076461590248e+01  8.4678843693488318e+01  7.5334770571771131e+01  7.1510094516429930e+01  8.6076623520898863e+01  5.9366896109882191e+01  4.7026781584360137e+01  6.9362087573088331e+01  8.9032035994434040e+01  5.0307160291633529e+01  5.1358046247093057e+01  5.9949430485127117e+01  4.6165319432166399e+01  5.7102778789769040e+01  7.5120710940863319e+01  7.2498533939886116e+01  8.7378999119804249e+01  9.2974535472283364e+01  6.9772530546091275e+01  7.5311900721060084e+01  6.1326951681279667e+01  6.0097450374871471e+01  5.7562378417672704e+01  5.2369096937525114e+01  5.2557718815896713e+01  4.4916063632963763e+01  9.8085755753305179e+01  9.4260216624331193e+01  4.9801952291254509e+01  7.0107289330645287e+01  8.8981553606106374e+01  5.8639745141083715e+01  7.3500701059742923e+01  5.1923471437854957e+01  5.7787213876045051e+01  6.2152047679526916e+01  8.1322787452907491e+01  5.3569668951068834e+01  6.3337907307265972e+01  9.8614722834977741e+01  5.6109222768273106e+01  4.4627139149278136e+01  7.2509455084413801e+01  6.4045385066655882e+01  5.3052487135034653e+01  7.8499668657625520e+01  7.2316720992607443e+01  7.2354121648882241e+01  5.6952096544409308e+01  5.6890065085681762e+01  6.6030287951050951e+01  9.6224026859344079e+01  9.5664007123430636e+01  9.6799726408653896e+01  7.9292797313620667e+01  7.8954945660310656e+01  9.4463854121207632e+01  6.0051600243902307e+01  7.2272058460636842e+01  7.1943924743622262e+01  5.8170920104830969e+01  6.3821415956789551e+01  6.1676098159617787e+01  8.1995675302897894e+01  5.4039272106222676e+01  4.5556013525470370e+01  5.2255980688584863e+01  5.1419846640925186e+01  7.2414397891129056e+01  5.8249794701952801e+01  5.9096569800106614e+01  7.6891817313574677e+01  7.6714756783206667e+01  5.6368842191619848e+01  5.6973845187094135e+01  8.2169076783329288e+01  8.2975380664573905e+01  6.3898978230100241e+01  4.8191626291208607e+01  5.8485203470524006e+01  6.7957980330980078e+01  8.5782238644081417e+01  6.6271164730914336e+01  9.0243118760200261e+01  6.8853457590781801e+01  7.0288702178201376e+01  7.1452105841840904e+01  8.6496747657214598e+01  8.8019234587844451e+01  7.0714048274289524e+01  5.6558839591948384e+01  5.7181554113014499e+01  8.6644830055686910e+01  7.2004202934167736e+01  8.5432109045115382e+01  8.9934212449339682e+01  6.9516758605074969e+01  7.2988853240662749e+01  5.8033959268510806e+01  5.4464220195976360e+01  5.4605994180531980e+01  7.9400505318158835e+01  7.9087134746236359e+01  9.2541383069724006e+01  5.2057951941772231e+01  5.1708631285932711e+01  5.1000423657849375e+01  8.0918610778132205e+01  5.3581320044960790e+01  5.8806288777185351e+01  8.0691514447715363e+01  6.0454636903338042e+01  6.1213889155636508e+01  6.1762398785470673e+01  7.6917132429234400e+01  7.6473129439657157e+01  6.3619904862459975e+01  6.6354185832311558e+01  4.6261936355180914e+01  9.4175651360921833e+01  5.9126939123381661e+01  7.4143122198214030e+01  4.7795991212059000e+01  4.7105490916646602e+01  6.0198795848650740e+01  5.9464068304614038e+01  5.8890588834118887e+01  7.1589699648194340e+01  8.3010035316762327e+01  8.3690617925821130e+01  5.4832900434871036e+01  5.5175180270954996e+01  6.4036623337944945e+01  7.2231072888010317e+01  7.6096442891786850e+01  7.0055634158392522e+01  5.8191083141343647e+01  5.2464629685594758e+01  5.7461751593545493e+01  7.2238277727557403e+01  7.3343140213642954e+01  4.4444738756354745e+01  5.5911990266506450e+01  9.8947666572558546e+01  7.2541412547809870e+01  7.7134175638498235e+01  6.9401263715425372e+01  8.3438807865670611e+01  6.1570312180141428e+01  5.3266829405203310e+01  5.8621839421658017e+01  7.6521815967827436e+01  7.6980866169044788e+01  8.4914962712470540e+01  6.0422263836071814e+01  4.8318090414557552e+01  4.7881735942272527e+01  4.7246136384171820e+01  4.8271918513702602e+01  5.5208544111682073e+01  8.3692822837148626e+01  7.4519328623832891e+01  5.8335702149423746e+01  5.8257691762411959e+01  5.8500429685355634e+01  5.4725274938431596e+01  5.3186945958037981e+01  7.7409038182549068e+01  7.6951038470965472e+01  9.2124450727951654e+01  8.5136088426640100e+01  6.3711972660689618e+01  9.3993357475984425e+01  7.1977091907862288e+01  6.6225537658543516e+01  5.8452351122874504e+01  9.5706560987569048e+01  7.8390301108173389e+01  5.0630615100493678e+01  5.0596867599146492e+01  4.6093945544476277e+01  7.1273028027548605e+01  9.0553659341557989e+01  6.8397751638463419e+01  7.1716164087937173e+01  7.1983080905189865e+01  7.2075581247901297e+01  8.1277891648528794e+01  5.5809248127845024e+01  9.6873303067064384e+01  4.6962145446387872e+01  8.4481191367919124e+01  6.6682071319061478e+01  7.2324374768603249e+01  5.7094309093848032e+01  5.1255286249991343e+01  6.3822670204044854e+01  8.4904874137120402e+01  5.6450981905803012e+01  8.8727086686265778e+01  5.7337962528139386e+01  4.6245539701150122e+01  7.2252083949342264e+01  6.6642475206460531e+01  8.3529629390500119e+01  5.7937284334642534e+01  7.6681583116138498e+01  5.5980793193869864e+01  7.2531811530552417e+01  9.8849552186129685e+01  4.4497351523983042e+01  7.0022646933114487e+01  5.9819640638859369e+01  4.7539694081912359e+01  5.9049822402857046e+01  7.2089287720657694e+01  6.6226093127754837e+01  5.7840760585365153e+01  5.5472776645294786e+01  9.4793220702352727e+01  7.2536088760694696e+01  7.2182587135719857e+01  7.1012186928023965e+01  5.9976853725255339e+01  6.5026288580522504e+01  6.6654587155804663e+01  7.2297408562715702e+01  5.7592863013955082e+01  7.2307658400906107e+01  5.8693676751766873e+01  7.4861805740543559e+01  8.7750195663539358e+01  7.4202479027496821e+01  4.9504085107003760e+01  8.8396351072345908e+01  5.8770362587516566e+01  4.9187672729110737e+01  5.0506636728397474e+01  5.0388387139587941e+01  6.2173220385235062e+01  5.8702451815069274e+01  4.6456811464322762e+01  7.6021807802041963e+01  9.0249969123207578e+01  6.8170551015313336e+01  5.9024937359212643e+01  5.2284673614758802e+01  7.3739187890422272e+01  7.2064321210275565e+01  4.5912775519062158e+01  8.7025435024383299e+01  7.0877598184827121e+01  7.6734160290135094e+01  5.8384866456401419e+01  7.6906294762524695e+01  7.5505947498417356e+01  9.1748438251750983e+01  5.7312441675951192e+01  7.2246627105964109e+01  7.2247347610594389e+01  5.7559371556958006e+01  5.7324513604722412e+01  5.7311764978861845e+01  4.6115909768112871e+01  9.6353499280334631e+01  6.9593012339927370e+01  8.6975971136869831e+01  5.8190031218470146e+01  7.5675614743064827e+01  7.2968802477101946e+01  6.8245882571964515e+01  7.8447512114745805e+01  8.5497501850424172e+01  8.8365143160386296e+01  5.8529573770282845e+01  7.2417417341128100e+01  5.6587528756723913e+01  4.8538767907787722e+01  7.2656512448766534e+01  6.1094848476154226e+01  9.3548745074229430e+01  5.8138526225693589e+01  9.2318743033635059e+01  9.3151618354012427e+01  4.6733318432650805e+01  4.6444610981813476e+01  9.5318771231246146e+01  9.5377859832604727e+01  8.2270964710338291e+01  6.1550594863458414e+01  5.8183870846589222e+01  5.9103288236236637e+01  6.1405531728240142e+01  5.9418826375783972e+01  6.1754489819947132e+01  4.5684993291205515e+01  5.7687433594616742e+01  6.3596693408288878e+01  8.5859272297745875e+01  8.2315157672487686e+01  5.9479226286958927e+01  5.6389547510474316e+01  5.7981806583188536e+01  6.0664275141156949e+01  5.1573977775164096e+01  8.5019070958068639e+01  7.7445442242165257e+01  7.2313864791244725e+01  7.3807940653471434e+01  7.3398576035377218e+01  8.6828890969753303e+01  4.5220189848486179e+01  9.7529468459692964e+01  9.7239992510467658e+01  9.7269189875229330e+01  4.5445448953886377e+01  4.5090464498690181e+01  4.8733170375323844e+01  7.0845808346234676e+01  4.9627973370287229e+01  7.6020922144764924e+01  5.1803583609975895e+01  5.6867319571439388e+01  5.6700293603184356e+01  7.2350854088777851e+01  7.2413073096560041e+01  7.2387112604261787e+01  5.8177174897451216e+01  9.7775479145258387e+01  7.2429239350348325e+01  5.6471410263465899e+01  4.6957869554761402e+01  7.4694234605735986e+01  5.9355428841255659e+01  7.2494694170705444e+01  8.6581842887392099e+01  7.2893592063615401e+01  5.7453664470564796e+01  7.2315212491475620e+01  5.3774545782196959e+01  5.0145387004200870e+01  5.0267368956844265e+01  4.9137230728125758e+01  8.9876325247211994e+01  5.8748194399085953e+01  9.5031715503184444e+01  4.9529428482996579e+01  7.2075528650506030e+01  5.7774068819646040e+01  7.4511090209473267e+01  7.4573319592186266e+01  4.5329311066249709e+01  5.9889783538797616e+01  9.4965926941324739e+01  5.0949429761736781e+01  5.5925413218596155e+01  5.3939764606752796e+01  8.3967155639408787e+01  6.8708674173158769e+01  5.5499929574804440e+01  5.9551603788814411e+01  5.7027130010595151e+01  5.9442261482855820e+01  9.0370369422544698e+01  8.0836189033414854e+01  6.6872574645863011e+01  6.0784446739744929e+01  5.8872887768277650e+01  6.0754478595554744e+01  6.1529821648111728e+01  5.8555565439775648e+01  7.1261581820018776e+01  7.2386528465026089e+01  6.7513190937153396e+01  5.7454369984253702e+01  7.2310445569665987e+01  5.8009309496672032e+01  8.7100074733810487e+01  7.1787348458648069e+01  7.7091165219519809e+01  7.6939003890914293e+01  7.7940825259586390e+01  5.9691755430180280e+01  6.2637696675352053e+01  5.1916171518695180e+01  5.2075264087450350e+01  5.1494615041502570e+01  6.3444506672840973e+01  4.6420471924917564e+01  5.7325246824232437e+01  6.5533285752311471e+01  9.5103662913249323e+01  9.5916769237016553e+01  9.2064662618418367e+01  6.4848989208312787e+01  6.8865052773941798e+01  6.7802155203245363e+01  5.8959322629658978e+01  5.5704683702701175e+01  9.0910788935777802e+01  8.4139481913713908e+01  4.6531718423699118e+01  7.8122423834876315e+01  7.9590017839076097e+01  5.8921329400664838e+01  8.9772357091805091e+01  5.3457329298186615e+01  7.9973750282804346e+01  5.2986072667175051e+01  8.0208310128886012e+01  6.2213376683613035e+01  6.3032818778386201e+01  5.6530077633854248e+01  8.4881861350652784e+01  5.6124761753656550e+01  5.2819525992972139e+01  6.0694149610439283e+01  5.9663448191159780e+01  8.5123051019608042e+01  5.8943496276514573e+01  6.5081820443708708e+01  7.8847409450668280e+01  6.5290254388797052e+01  5.4586801540838252e+01  7.9761198147476762e+01  4.5089777936901271e+01  9.7657984525967635e+01  7.790