<?xml version="1.0"?>
<VTKFile type="UnstructuredGrid"  version="0.1"  >
<UnstructuredGrid>
<Piece  NumberOfPoints="2331" NumberOfCells="4248">
<Points>
<DataArray  type="Float64"  NumberOfComponents="3"  format="ascii">0 0.3 0  0 0 0  0.04999999999999999 0 0  0.0514582251803892 0.02410733605106462 0  0.0558116365147896 0.04786313285751154 0  0.06299675146291706 0.07092097740850717 0  0.07290879486935808 0.09294463440875382 0  0.08540322682126872 0.1136129493462312 0  0.1002978503657798 0.132624531648159 0  0.117375468351841 0.1497021496342203 0  0.1363870506537689 0.1645967731787313 0  0.1570553655912463 0.177091205130642 0  0.1790790225914929 0.187003248537083 0  0.2021368671424885 0.1941883634852104 0  0.2258926639489354 0.1985417748196108 0  0.25 0.2 0  0.2741073360510646 0.1985417748196108 0  0.2978631328575116 0.1941883634852104 0  0.3209209774085071 0.187003248537083 0  0.3429446344087537 0.177091205130642 0  0.3636129493462312 0.1645967731787313 0  0.3826245316481591 0.1497021496342202 0  0.3997021496342202 0.132624531648159 0  0.4145967731787313 0.1136129493462312 0  0.427091205130642 0.09294463440875371 0  0.4370032485370829 0.07092097740850713 0  0.4441883634852104 0.04786313285751155 0  0.4485417748196108 0.02410733605106461 0  0.45 0 0  0.55 0 0  0.5514582251803892 0.02410733605106462 0  0.5558116365147896 0.04786313285751154 0  0.5629967514629171 0.07092097740850717 0  0.5729087948693581 0.09294463440875382 0  0.5854032268212688 0.1136129493462312 0  0.6002978503657798 0.132624531648159 0  0.617375468351841 0.1497021496342203 0  0.6363870506537689 0.1645967731787313 0  0.6570553655912463 0.177091205130642 0  0.6790790225914929 0.187003248537083 0  0.7021368671424885 0.1941883634852104 0  0.7258926639489354 0.1985417748196108 0  0.75 0.2 0  0.7741073360510646 0.1985417748196108 0  0.7978631328575116 0.1941883634852104 0  0.8209209774085071 0.187003248537083 0  0.8429446344087537 0.177091205130642 0  0.8636129493462312 0.1645967731787313 0  0.8826245316481591 0.1497021496342202 0  0.8997021496342202 0.132624531648159 0  0.9145967731787312 0.1136129493462312 0  0.927091205130642 0.09294463440875371 0  0.9370032485370829 0.07092097740850713 0  0.9441883634852104 0.04786313285751155 0  0.9485417748196108 0.02410733605106461 0  0.95 0 0  1 0 0  1 0.3 0  0.9758926639489353 0.3014582251803892 0  0.9521368671424885 0.3058116365147896 0  0.9290790225914928 0.3129967514629171 0  0.9070553655912461 0.3229087948693581 0  0.8863870506537688 0.3354032268212687 0  0.867375468351841 0.3502978503657798 0  0.8502978503657798 0.367375468351841 0  0.8354032268212687 0.3863870506537689 0  0.822908794869358 0.4070553655912464 0  0.8129967514629171 0.4290790225914929 0  0.8058116365147896 0.4521368671424885 0  0.8014582251803892 0.4758926639489354 0  0.8 0.4999999999999999 0  0.8014582251803892 0.5241073360510646 0  0.8058116365147896 0.5478631328575115 0  0.8129967514629171 0.5709209774085071 0  0.8229087948693581 0.5929446344087538 0  0.8354032268212688 0.6136129493462312 0  0.8502978503657798 0.632624531648159 0  0.867375468351841 0.6497021496342202 0  0.8863870506537689 0.6645967731787313 0  0.9070553655912463 0.677091205130642 0  0.9290790225914929 0.6870032485370829 0  0.9521368671424885 0.6941883634852104 0  0.9758926639489354 0.6985417748196108 0  1 0.7 0  1 1 0  0.95 1 0  0.9485417748196108 0.9758926639489353 0  0.9441883634852104 0.9521368671424885 0  0.9370032485370829 0.9290790225914928 0  0.927091205130642 0.9070553655912463 0  0.9145967731787312 0.8863870506537688 0  0.8997021496342201 0.8673754683518409 0  0.882624531648159 0.8502978503657798 0  0.863612949346231 0.8354032268212686 0  0.8429446344087537 0.822908794869358 0  0.8209209774085071 0.8129967514629171 0  0.7978631328575114 0.8058116365147896 0  0.7741073360510646 0.8014582251803892 0  0.75 0.8 0  0.7258926639489353 0.8014582251803892 0  0.7021368671424885 0.8058116365147896 0  0.6790790225914928 0.8129967514629171 0  0.6570553655912461 0.8229087948693581 0  0.6363870506537688 0.8354032268212688 0  0.617375468351841 0.8502978503657798 0  0.6002978503657798 0.867375468351841 0  0.5854032268212687 0.8863870506537689 0  0.572908794869358 0.9070553655912463 0  0.5629967514629171 0.9290790225914929 0  0.5558116365147896 0.9521368671424885 0  0.5514582251803892 0.9758926639489355 0  0.55 0.9999999999999999 0  0.45 0.9999999999999999 0  0.4485417748196108 0.9758926639489353 0  0.4441883634852104 0.9521368671424885 0  0.4370032485370829 0.9290790225914928 0  0.427091205130642 0.9070553655912463 0  0.4145967731787313 0.8863870506537688 0  0.3997021496342201 0.8673754683518409 0  0.382624531648159 0.8502978503657798 0  0.363612949346231 0.8354032268212686 0  0.3429446344087536 0.822908794869358 0  0.3209209774085071 0.8129967514629171 0  0.2978631328575115 0.8058116365147896 0  0.2741073360510646 0.8014582251803892 0  0.25 0.8 0  0.2258926639489353 0.8014582251803892 0  0.2021368671424885 0.8058116365147896 0  0.1790790225914928 0.8129967514629171 0  0.1570553655912462 0.8229087948693581 0  0.1363870506537688 0.8354032268212688 0  0.117375468351841 0.8502978503657798 0  0.1002978503657797 0.867375468351841 0  0.08540322682126869 0.8863870506537689 0  0.07290879486935797 0.9070553655912463 0  0.06299675146291703 0.9290790225914929 0  0.05581163651478957 0.9521368671424885 0  0.0514582251803892 0.9758926639489355 0  0.04999999999999999 0.9999999999999999 0  0 1 0  -0 0.7000000000000001 0  0.0241073360510646 0.6985417748196108 0  0.04786313285751161 0.6941883634852104 0  0.07092097740850711 0.6870032485370829 0  0.09294463440875372 0.677091205130642 0  0.1136129493462312 0.6645967731787312 0  0.1326245316481591 0.6497021496342202 0  0.1497021496342202 0.632624531648159 0  0.1645967731787313 0.6136129493462312 0  0.177091205130642 0.5929446344087537 0  0.187003248537083 0.5709209774085071 0  0.1941883634852104 0.5478631328575115 0  0.1985417748196108 0.5241073360510646 0  0.2 0.5 0  0.1985417748196108 0.4758926639489353 0  0.1941883634852104 0.4521368671424885 0  0.1870032485370829 0.4290790225914928 0  0.177091205130642 0.4070553655912463 0  0.1645967731787313 0.3863870506537688 0  0.1497021496342202 0.3673754683518409 0  0.132624531648159 0.3502978503657798 0  0.113612949346231 0.3354032268212686 0  0.09294463440875361 0.322908794869358 0  0.07092097740850711 0.3129967514629171 0  0.04786313285751148 0.3058116365147896 0  0.02410733605106464 0.3014582251803892 0  0.6985417748196108 0.5241073360510646 0  0.7 0.5 0  0.6985417748196108 0.4758926639489353 0  0.6941883634852104 0.4521368671424885 0  0.6870032485370829 0.4290790225914928 0  0.677091205130642 0.4070553655912463 0  0.6645967731787312 0.3863870506537688 0  0.6497021496342201 0.3673754683518409 0  0.632624531648159 0.3502978503657798 0  0.613612949346231 0.3354032268212686 0  0.5929446344087537 0.322908794869358 0  0.5709209774085071 0.3129967514629171 0  0.5478631328575114 0.3058116365147896 0  0.5241073360510646 0.3014582251803892 0  0.4999999999999999 0.3 0  0.4758926639489353 0.3014582251803892 0  0.4521368671424885 0.3058116365147896 0  0.4290790225914928 0.3129967514629171 0  0.4070553655912462 0.3229087948693581 0  0.3863870506537688 0.3354032268212687 0  0.367375468351841 0.3502978503657798 0  0.3502978503657798 0.367375468351841 0  0.3354032268212687 0.3863870506537689 0  0.322908794869358 0.4070553655912464 0  0.3129967514629171 0.4290790225914929 0  0.3058116365147896 0.4521368671424885 0  0.3014582251803892 0.4758926639489354 0  0.3 0.4999999999999999 0  0.3014582251803892 0.5241073360510646 0  0.3058116365147896 0.5478631328575115 0  0.3129967514629171 0.5709209774085071 0  0.3229087948693581 0.5929446344087538 0  0.3354032268212687 0.6136129493462312 0  0.3502978503657798 0.632624531648159 0  0.367375468351841 0.6497021496342202 0  0.3863870506537689 0.6645967731787313 0  0.4070553655912463 0.677091205130642 0  0.4290790225914929 0.6870032485370829 0  0.4521368671424885 0.6941883634852104 0  0.4758926639489354 0.6985417748196108 0  0.4999999999999999 0.7 0  0.5241073360510646 0.6985417748196108 0  0.5478631328575116 0.6941883634852104 0  0.5709209774085071 0.6870032485370829 0  0.5929446344087537 0.677091205130642 0  0.6136129493462312 0.6645967731787312 0  0.6326245316481591 0.6497021496342202 0  0.6497021496342202 0.632624531648159 0  0.6645967731787312 0.6136129493462312 0  0.677091205130642 0.5929446344087537 0  0.6870032485370829 0.5709209774085071 0  0.6941883634852104 0.5478631328575115 0  0 0.15 0  1 0.15 0  1 0.85 0  0 0.8500000000000001 0  0 0.075 0  1 0.075 0  1 0.925 0  0 0.925 0  0.5 0.8127595604293815 0  0.5069440078039168 0.190422209288238 0  0.25 0.3127595604293815 0  0.756944007803917 0.3095777907117619 0  0.756944007803917 0.6904222092882382 0  0.25 0.6872404395706185 0  0 0.225 0  0.4255768646051012 0.2241073097134061 0  1 0.7749999999999999 0  0.6773391559270888 0.2766774022734219 0  1 0.225 0  0.6755768646051011 0.7241073097134062 0  0 0.7750000000000001 0  0.5818971135297744 0.2287925518358889 0  0.8318971135297746 0.728792551835889 0  0.1659156081861886 0.7301636995921477 0  0.08376842746533225 0.2299656297760495 0  0.4236002201977974 0.7746535834185855 0  0.0840843918138115 0.7698363004078523 0  0.3340843918138113 0.7301636995921477 0  0.3340843918138114 0.2698363004078523 0  0.9159156081861887 0.2301636995921477 0  0.5840843918138116 0.7698363004078522 0  0.1659156081861887 0.2698363004078523 0  0.9162315725346678 0.7700343702239506 0  0.8340843918138114 0.2698363004078523 0  0.75 0.6146645247768686 0  0.5 0.1125158665330878 0  0.75 0.3874841334669124 0  0.2504983345544904 0.6122915843562002 0  0.2504983345544902 0.3877084156437999 0  0.5 0.8879783056303169 0  0.7005361650220154 0.3333055947145943 0  0.70416808765371 0.6599554817221275 0  0.449930214263529 0.1678187287522426 0  0.2247310981387008 0.7415600637745463 0  0.5155081196221678 0.7563797802146907 0  0.2752689018612993 0.2584399362254537 0  0.05605196690611226 0.8246131191226815 0  0.9439480330938878 0.1
[...]
<PointData  Scalars="Temperature"> 
<DataArray  type="Float64"  Name="Temperature"  format="ascii">7.3854785358586923e+01  7.4564342233169768e+01  7.4563175772347734e+01  7.4547093407309518e+01  7.4502111534994611e+01  7.4432126238338185e+01  7.4338448692084455e+01  7.4221986007013570e+01  7.4083813256760180e+01  7.3921883527220331e+01  7.3731668264915712e+01  7.3515447127760964e+01  7.3279728313244718e+01  7.3029989056380018e+01  7.2771749155010667e+01  7.2511716538304427e+01  7.2250441648865234e+01  7.1986494714774224e+01  7.1724408018734877e+01  7.1462066966437959e+01  7.1212211723134473e+01  7.0983742684953597e+01  7.0786357550554001e+01  7.0633739005501212e+01  7.0524846499267852e+01  7.0458210170158907e+01  7.0422128133533036e+01  7.0407675259189546e+01  7.0404154768927540e+01  7.0354429285504111e+01  7.0340181897353901e+01  7.0295947881778446e+01  7.0213090499889731e+01  7.0084329474219658e+01  6.9898278955806390e+01  6.9654207023763675e+01  6.9356121789771734e+01  6.9013976988114294e+01  6.8643102612346453e+01  6.8265247687292415e+01  6.7902473212041926e+01  6.7573188905420281e+01  6.7288665945797675e+01  6.7052150043994146e+01  6.6860607682991443e+01  6.6710342159771415e+01  6.6590894408199873e+01  6.6496563098235129e+01  6.6422093141714413e+01  6.6362028601267056e+01  6.6313730521160096e+01  6.6274341063064156e+01  6.6243245397785401e+01  6.6220179192277200e+01  6.6205378242245459e+01  6.6200097546782274e+01  6.6199665008206125e+01  6.6400826726019588e+01  6.6408362664641601e+01  6.6429510552314383e+01  6.6459718408608310e+01  6.6490548716991640e+01  6.6510428871890170e+01  6.6504020766511687e+01  6.6455172525681093e+01  6.6351574928687484e+01  6.6187473548908457e+01  6.5951168498061890e+01  6.5656338028864695e+01  6.5316201679416309e+01  6.4952556532293443e+01  6.4589945756320461e+01  6.4248862214293666e+01  6.3932858135992092e+01  6.3645770316947797e+01  6.3377024683268800e+01  6.3122848889459270e+01  6.2884320415560751e+01  6.2658382291933457e+01  6.2455499883273582e+01  6.2283213311994537e+01  6.2152513529181590e+01  6.2071792434106953e+01  6.2043470216976374e+01  6.1422223161956929e+01  6.1423173895029628e+01  6.1437173360141188e+01  6.1476433949573838e+01  6.1537518184350482e+01  6.1619486982866185e+01  6.1721260892226248e+01  6.1842811980660422e+01  6.1985776714879051e+01  6.2150889322529096e+01  6.2339685304431306e+01  6.2548516053177813e+01  6.2769368158560717e+01  6.2999817578680634e+01  6.3229763749047834e+01  6.3464207074720044e+01  6.3700469806831521e+01  6.3938248124012176e+01  6.4173739718793911e+01  6.4402067478074500e+01  6.4607476598861496e+01  6.4786821934079839e+01  6.4924071738569580e+01  6.5023242176039730e+01  6.5082669906870024e+01  6.5112852883838102e+01  6.5125739151871002e+01  6.5128669912513089e+01  6.5174363425639129e+01  6.5188855035050764e+01  6.5231548237540167e+01  6.5308774677631959e+01  6.5429658949409287e+01  6.5605531190250744e+01  6.5834458484114251e+01  6.6115954538004004e+01  6.6436132661382416e+01  6.6784745302775633e+01  6.7137254423724514e+01  6.7472301398229391e+01  6.7776751557356064e+01  6.8033098523959438e+01  6.8242419844714334e+01  6.8404064010501486e+01  6.8526707586083489e+01  6.8618197487433477e+01  6.8686921931767742e+01  6.8739195935409612e+01  6.8779364467873876e+01  6.8810475328812345e+01  6.8835432939663562e+01  6.8854685204542562e+01  6.8869041064660877e+01  6.8877810731901988e+01  6.8881116392734839e+01  6.8881220903735510e+01  6.8770116248222891e+01  6.8766145692169843e+01  6.8755781421840013e+01  6.8743138838353332e+01  6.8735189049126006e+01  6.8742602475216586e+01  6.8778706326661478e+01  6.8857428161639405e+01  6.8993301996296708e+01  6.9192760178466614e+01  6.9461960382344529e+01  6.9793583464193361e+01  7.0174720152779216e+01  7.0578875391630291e+01  7.0982795267177195e+01  7.1365727148401120e+01  7.1718188030068887e+01  7.2040605082388240e+01  7.2342798558211101e+01  7.2629114015500448e+01  7.2901562017265704e+01  7.3155007962509586e+01  7.3384932339095982e+01  7.3581110757093938e+01  7.3728275550913892e+01  7.3822009755714475e+01  6.4633435232774374e+01  6.4986558034301581e+01  6.5364069983611998e+01  6.5748161527703630e+01  6.6128275607000859e+01  6.6503009146055888e+01  6.6879798823716385e+01  6.7267761851960060e+01  6.7674029125575871e+01  6.8090734509814808e+01  6.8514753268359073e+01  6.8940716405363631e+01  6.9353717919414933e+01  6.9749495006660752e+01  7.0124432126737190e+01  7.0475867298950703e+01  7.0800261325075667e+01  7.1097050152844503e+01  7.1358094246599464e+01  7.1575333702646688e+01  7.1729921538794983e+01  7.1814294105608312e+01  7.1814342567393979e+01  7.1725700946735230e+01  7.1542118786120696e+01  7.1275681203435340e+01  7.0936840121802035e+01  7.0545711714419554e+01  7.0130488807165605e+01  6.9712940416823585e+01  6.9308081004237494e+01  6.8908333725911973e+01  6.8519359015250387e+01  6.8130294882946117e+01  6.7732839761483021e+01  6.7330210792235590e+01  6.6919405262576575e+01  6.6518036065295917e+01  6.6126077131332380e+01  6.5756501049080484e+01  6.5407325739832430e+01  6.5081927852312532e+01  6.4779978936782825e+01  6.4508684682154026e+01  6.4268358930232196e+01  6.4070832881942863e+01  6.3928881944075393e+01  6.3850190616782257e+01  6.3847966757277746e+01  6.3927817183957686e+01  6.4090842120679739e+01  6.4330536982525032e+01  7.4222350737628872e+01  6.6307806728028424e+01  6.1720157226716466e+01  6.8816189685669073e+01  7.4459673343962180e+01  6.6233831019678121e+01  6.1513498443939774e+01  6.8860623431975611e+01  6.5313032986793715e+01  7.0152429770451064e+01  7.2320649080923872e+01  6.6906419878276282e+01  6.3349061070093782e+01  6.8417154162091222e+01  7.3980759821716831e+01  7.0904983999359956e+01  6.1931639038540560e+01  6.7790265029692577e+01  6.6372877819708833e+01  6.3802964010730470e+01  6.8781406663437167e+01  6.9235212413834532e+01  6.2735033114047610e+01  6.8594847264884947e+01  7.3764705329508274e+01  6.6156461873693573e+01  6.8732945976650555e+01  6.7433769098224545e+01  7.1791600403021334e+01  6.6447646197630505e+01  6.4590577373074808e+01  7.3090543149056217e+01  6.2121450142413693e+01  6.6664533208324386e+01  6.3751365396373394e+01  7.0305465104919776e+01  6.6352361585999091e+01  6.9041683892813779e+01  7.1899870012573032e+01  6.5224217117718183e+01  6.7139388065076304e+01  6.3690292788755194e+01  7.0605137303171233e+01  6.8316528639714079e+01  6.5210805558889845e+01  7.2255089528081626e+01  6.8782825319434664e+01  6.6361087395562095e+01  7.4062001465645409e+01  6.1874395128234056e+01  7.0333088737935554e+01  6.3411434775638838e+01  6.7324874818528599e+01  6.5718188740174767e+01  6.8694293662305341e+01  7.2644900734306290e+01  6.8084734001941371e+01  7.1961762117360365e+01  6.4885250515482198e+01  7.0359233357787019e+01  6.5718910566898955e+01  6.4385996752504496e+01  7.1338443565275625e+01  6.9880579332761087e+01  6.5150982752026422e+01  6.5172078675594477e+01  7.2680568663679850e+01  6.7947119176825240e+01  6.9705560970541967e+01  6.3348704351692454e+01  6.6608399150701459e+01  6.8508975841651491e+01  7.1326620299223762e+01  7.1473165658861845e+01  6.4133832096016903e+01  6.4267455679570077e+01  6.8362880965060185e+01  6.3060037123280757e+01  6.6936622380823664e+01  6.5047085754395070e+01  7.0379640402067366e+01  7.0646819606195493e+01  6.6784714482981840e+01  6.6872184135281657e+01  6.9799448262162528e+01  6.2385792873721620e+01  6.2422259009943922e+01  6.5645894748212655e+01  7.3513471225938090e+01  6.8764512248870290e+01  6.6493600882029924e+01  6.8640869494329365e+01  7.3392134352478976e+01  6.8702631043039815e+01  6.6405530584305509e+01  6.6573519088512299e+01  6.2061272275681745e+01  7.3832400502126191e+01  6.6300753592438227e+01  6.1677503746968945e+01  7.4272251521868498e+01  6.8819602154085899e+01  6.6431854437795181e+01  6.3062992291998107e+01  7.0036607072377947e+01  6.3568098486898329e+01  6.4554865271887692e+01  6.7555640218457796e+01  7.3026765316576217e+01  6.6438084751648930e+01  7.1722542505163801e+01  6.8705985092185145e+01  6.8731165717118245e+01  7.3854394012439982e+01  6.2064307915690478e+01  6.8935759483471671e+01  7.2243590698836940e+01  6.5129984391059764e+01  6.2819055694820214e+01  7.2048411875295301e+01  6.8572000253060466e+01  6.7812527319905513e+01  6.7757681122894965e+01  6.6234084851364827e+01  7.0780494471592348e+01  6.3936647885652064e+01  7.1043472260983890e+01  6.3785556636291020e+01  6.5458489402818060e+01  6.6030187109990663e+01  6.9162008380634319e+01  6.7298073870528981e+01  6.2763919157768484e+01  6.9037549319911065e+01  6.8460338175132776e+01  7.1855019747076113e+01  6.7510812639133221e+01  7.3017203272115324e+01  6.6561019860847878e+01  6.4641557729665664e+01  7.0495849457373154e+01  7.3960538990686203e+01  6.6741590994130291e+01  6.6387780482703178e+01  6.8770440571074815e+01  6.5036633584793691e+01  6.8796219903473968e+01  6.6343763691591164e+01  6.6780091658946816e+01  6.1825118045398483e+01  7.0497439322634051e+01  6.6752376505994704e+01  6.6662225096797115e+01  7.0334458598502664e+01  7.4096264387561078e+01  6.3976454371314098e+01  6.3934596145443273e+01  6.3512230096710333e+01  6.9447389679921258e+01  7.1863477988753417e+01  6.8707807308254218e+01  7.1849175089277296e+01  6.8741550587303450e+01  7.0409340313967718e+01  7.0256535834932876e+01  6.6026304716914140e+01  6.6183698206413254e+01  6.5025940793831083e+01  6.5127208099325472e+01  6.5300133550544018e+01  6.1831563703511890e+01  6.8773069758356158e+01  6.1610510643208464e+01  6.6392098420117080e+01  7.3891922323632500e+01  6.6208742772564690e+01  7.4536720195875134e+01  6.6269104568397452e+01  6.6256256587358081e+01  7.4348791915865689e+01  6.1446237216763421e+01  6.8875729456198457e+01  6.2009684364170255e+01  6.8839351115636930e+01  6.8846606299847295e+01  7.1612900551245147e+01  6.9372974587592807e+01  6.8490772152493662e+01  7.2046457467764910e+01  6.5421276685177773e+01  6.2225949626778196e+01  6.7950997306442531e+01  7.2626359302531895e+01  6.3162294935843775e+01  6.3620150489690907e+01  6.5574602399492406e+01  6.1958713927729654e+01  6.4869405309992970e+01  6.9945601899564949e+01  6.8710750251524829e+01  7.2234529580498929e+01  7.3384899389564751e+01  6.8821653600003103e+01  7.0022234729542689e+01  6.7020457290847418e+01  6.6655534160379688e+01  6.4985496046424387e+01  6.3753086947947843e+01  6.3826920357156794e+01  6.1569469939494468e+01  7.4395421565395949e+01  7.3642628895562623e+01  6.3098856141587071e+01  6.8120166028343519e+01  7.2584755611153213e+01  6.6564707894830022e+01  6.9628428370204162e+01  6.3741677071409157e+01  6.6443240187400221e+01  6.7055524057466897e+01  7.1183701617905498e+01  6.4020078652637437e+01  6.6419780548253158e+01  7.4498833592420013e+01  6.6226952429124665e+01  6.1479544828362080e+01  6.8868051100497254e+01  6.6598806682472841e+01  6.4196721971179613e+01  7.0635458310130986e+01  6.8791902548931375e+01  6.8801874840012047e+01  6.6343742944827881e+01  6.6332032549828739e+01  6.7100318865297652e+01  7.4030308448100357e+01  7.3919374071052530e+01  7.4143169453014650e+01  7.0813765386922356e+01  7.0737715465106945e+01  7.3678902659381862e+01  6.5595070210428659e+01  6.8720040593695472e+01  6.8663984232776201e+01  6.6521974899345139e+01  6.7496548602026621e+01  6.7135505707354483e+01  7.1315804751936440e+01  6.4142709855017657e+01  6.1768403165017077e+01  6.3797256034775025e+01  6.3536386858313030e+01  6.9409754416770724e+01  6.5134331013328506e+01  6.6526395560273130e+01  7.0392039591664073e+01  7.0356232149491632e+01  6.5382420785937200e+01  6.5562426185095148e+01  7.1001384812777999e+01  7.1185204958837531e+01  6.7557473486069526e+01  6.2588004329819903e+01  6.5193047797614270e+01  6.8449730112806535e+01  7.2006763098073961e+01  6.7152566833754960e+01  7.2835325000814947e+01  6.7803563921527996e+01  6.8194920844190051e+01  6.8491380786956896e+01  7.2149351788637304e+01  7.2414035171821610e+01  6.8286386410224424e+01  6.4730705941592063e+01  6.4878243077313570e+01  7.2125030914184237e+01  6.8628711391187892e+01  7.1874953402895201e+01  7.2752880796678028e+01  6.7958932904020799e+01  6.8848551286282330e+01  6.5091918605883492e+01  6.4710212384839409e+01  6.4769754173647854e+01  7.0340286745414602e+01  7.0265791307360843e+01  7.3291337044367680e+01  6.3635131569683395e+01  6.3530546215651071e+01  6.3382363096340917e+01  7.1091600253498513e+01  6.3999195841716649e+01  6.5287147316250739e+01  7.1055263996255150e+01  6.5692947158537550e+01  6.5886257858992593e+01  6.7031518277094605e+01  7.0309147010158327e+01  7.0237480117422933e+01  6.7527320193602264e+01  6.8091595069398778e+01  6.1986965087947048e+01  7.3627595169938829e+01  6.6454134401584781e+01  6.9784136764110897e+01  6.2444135917978080e+01  6.2239038914496987e+01  6.6738991344260270e+01  6.6648438487521290e+01  6.6636266115308402e+01  6.8554554556919200e+01  7.1479289546918380e+01  7.1610026937488541e+01  6.4305833681634056e+01  6.4393453483444489e+01  6.6594324650870405e+01  6.9363669798578684e+01  7.0194606737758448e+01  6.8891947586258695e+01  6.6508448315454686e+01  6.3989043471232719e+01  6.6410673429377425e+01  6.8757138949064057e+01  6.9578319676941092e+01  6.1422704371560307e+01  6.6199868252916275e+01  7.4563851666617992e+01  6.8881205086271407e+01  7.0385648629044226e+01  6.8730122815693136e+01  7.1572527622793984e+01  6.5974453878919306e+01  6.3933555990346861e+01  6.6539372845109128e+01  7.0310974620818371e+01  7.0404130906172071e+01  7.1653953021913338e+01  6.6899781647790391e+01  6.2620320080763200e+01  6.2480995043593246e+01  6.2288565634437283e+01  6.2591669627255818e+01  6.4416503447983615e+01  7.1630201758116456e+01  6.9193499176878632e+01  6.5155249631346351e+01  6.5135413373371847e+01  6.5199124300074928e+01  6.4289379235026360e+01  6.4268680481609238e+01  6.9869624210448549e+01  6.9757290405985643e+01  7.3211269427753919e+01  7.1868339256902146e+01  6.6513946679199947e+01  7.3587363773461703e+01  6.8594882522966472e+01  6.7147281590615592e+01  6.6065855020759713e+01  7.3927059158563225e+01  7.0648935261993017e+01  6.3376352810229257e+01  6.3322631658771449e+01  6.1933704261601271e+01  6.8394286331886974e+01  7.2908838069465574e+01  6.7694917570957486e+01  6.8581868119345089e+01  6.8656586275143482e+01  6.8693538628771591e+01  7.0783965060685262e+01  6.5173855091701185e+01  7.4157784963370361e+01  6.2198863802294724e+01  7.1540768379493471e+01  6.8126905875594645e+01  6.8785331647057390e+01  6.6357937377130710e+01  6.3563922984433731e+01  6.7462751678930374e+01  7.1803090948247572e+01  6.4700202433290585e+01  7.2499407052440361e+01  6.5720892613076998e+01  6.1984630229089824e+01  6.8729698139753438e+01  6.8140403511401288e+01  7.1332053106457764e+01  6.6479829369548412e+01  7.0334560238653125e+01  6.6209318781395623e+01  6.8877251559756857e+01  7.4544696476425386e+01  6.1439104901110746e+01  6.8116022153999822e+01  6.6531180052697238e+01  6.2385521382465761e+01  6.6641255719325429e+01  6.8671142800426026e+01  6.8079249153706371e+01  6.6444526149338742e+01  6.4473479331061185e+01  7.3745515480335456e+01  6.8752599211781231e+01  6.8722597535302228e+01  6.8325768352135043e+01  6.6784206885830599e+01  6.6843947684033196e+01  6.7250758632757226e+01  6.8761782756372327e+01  6.6415210702983330e+01  6.8774797558922742e+01  6.6222964537300086e+01  6.9912283827214608e+01  7.2382768345387746e+01  6.9099693104396096e+01  6.2937242035597976e+01  7.2450664814964313e+01  6.5283181748179601e+01  6.2864170732424768e+01  6.3230273625404891e+01  6.3218264963681861e+01  6.7181224702779701e+01  6.5248591996184103e+01  6.2048467011077342e+01  7.0190043397635108e+01  7.2861944412265913e+01  6.7645823599636515e+01  6.5333749594054623e+01  6.3857444362809581e+01  6.8992278919535551e+01  6.8697963179232602e+01  6.1880190566477147e+01  7.2217838350787787e+01  6.8305209400407364e+01  7.0362211941474158e+01  6.5167145295589933e+01  7.0396986632977615e+01  7.0082725282861034e+01  7.3152725140178774e+01  6.6395478526725114e+01  6.8765134623176849e+01  6.8748449281298235e+01  6.6417243428832819e+01  6.6383992171422477e+01  6.6383742860943556e+01  6.1938946157239386e+01  7.4055207988760984e+01  6.8802627520290670e+01  7.2109388175223614e+01  6.5123979890036267e+01  7.0067555174689360e+01  6.9508264697163824e+01  6.8492940128082893e+01  7.0612729264804557e+01  7.1817084382515858e+01  7.2492057942269014e+01  6.6511980482372422e+01  6.8830975809846265e+01  6.6293065289561326e+01  6.2660685934118440e+01  6.8760301243077336e+01  6.5859944014574708e+01  7.3494627943511006e+01  6.6476885017129320e+01  7.3257466960824331e+01  7.3426838475938212e+01  6.2136122750771150e+01  6.2047047479892584e+01  7.3849779209397326e+01  7.3861999866222050e+01  7.1357235896475089e+01  6.5970094535422533e+01  6.5942956167446582e+01  6.6325468682856027e+01  6.5935854157546203e+01  6.5440876583383812e+01  6.7132582250034616e+01  6.1809024669923389e+01  6.5002837028758293e+01  6.6485330550941015e+01  7.1944927132111744e+01  7.1032405439045448e+01  6.6538414438901114e+01  6.5378296962516075e+01  6.5071058027723680e+01  6.5751514223466430e+01  6.3613233597287433e+01  7.1712671409654220e+01  7.0480159988206964e+01  6.8784181971050529e+01  6.9032542149809828e+01  6.8924228095766281e+01  7.2098558021024942e+01  6.1664302958758306e+01  7.4286477376427314e+01  7.4229701163796790e+01  7.4235495908429655e+01  6.1733235317789905e+01  6.1623486504719033e+01  6.2760373506897622e+01  6.8346295468249792e+01  6.3003436291108997e+01  6.9539109123861039e+01  6.3783079293850847e+01  6.6330610449423162e+01  6.6307077708934685e+01  6.8802771882466132e+01  6.8827490404456725e+01  6.8816727665816430e+01  6.5117436889161695e+01  7.4334694530034270e+01  6.8834783619215315e+01  6.6276359777943284e+01  6.2202567706974861e+01  6.9897518259415151e+01  6.5414723453185260e+01  6.9394909298555447e+01  7.2062382726398909e+01  6.8797201345086137e+01  6.6398115645460834e+01  6.8770748104732334e+01  6.4460818898630635e+01  6.3192147946482294e+01  6.3204947340996902e+01  6.2870150626456265e+01  7.2784803130914256e+01  6.5267530447387642e+01  7.3796060094465986e+01  6.3001280882221657e+01  6.8708048499921517e+01  6.6463758905174700e+01  6.9186452575286253e+01  6.9860710172773608e+01  6.1698155494209949e+01  6.5551571042988712e+01  7.3779299985566738e+01  6.3329669446580574e+01  6.6201707547872019e+01  6.4100462333504964e+01  7.1675550197530015e+01  6.7780031111745316e+01  6.5083486949451668e+01  6.5471571184394222e+01  6.4847863558071509e+01  6.6317173444692756e+01  7.2852350772942685e+01  7.0682539433206230e+01  6.7314964808322344e+01  6.6691272434287342e+01  6.6524107840074691e+01  6.6878874663696223e+01  6.6916786477044695e+01  6.5216898415386467e+01  6.8462153556067889e+01  6.8735673320134083e+01  6.7461450790371174e+01  6.6398917995108505e+01  6.8769452519613083e+01  6.6475850968844199e+01  7.2194974610453556e+01  6.8533990567198018e+01  7.0407711095192781e+01  7.0368565356394711e+01  7.0559394587277325e+01  6.6773380216898801e+01  6.6244753927732873e+01  6.3652902717520185e+01  6.3655983425270314e+01  6.3503838600653587e+01  6.7388268469594763e+01  6.2034139736027100e+01  6.6394481492851838e+01  6.7885048592048534e+01  7.3808905492502049e+01  7.3969607072629742e+01  7.3211748513204455e+01  6.7787976266453484e+01  6.7801843162793233e+01  6.7538374409080248e+01  6.6351433349567571e+01  6.4517815569931358e+01  7.2955337188725110e+01  7.1675164792313979e+01  6.2064979565415868e+01  7.0554830430105270e+01  7.0845504300768354e+01  6.6591826070351217e+01  7.2749314205499616e+01  6.4014542817918553e+01  7.0931977878738834e+01  6.3887374590937036e+01  7.0985152255757740e+01  6.6137229555905535e+01  6.6343330585673968e+01  6.4721267994985240e+01  7.1851589286764764e+01  6.4637103734771316e+01  6.3808352920170940e+01  6.6715746045057188e+01  6.6414601426353769e+01  7.1852613373204221e+01  6.5311741271008771e+01  6.7814747504775269e+01  7.0208781875590105e+01  6.7805984429249861e+01  6.4758527992765380e+01  7.0868939600164339e+01  6.1623572118189600e+01  7.4311672583329852e+01  7.056