<?xml version="1.0"?>
<VTKFile type="UnstructuredGrid"  version="0.1"  >
<UnstructuredGrid>
<Piece  NumberOfPoints="2331" NumberOfCells="4248">
<Points>
<DataArray  type="Float64"  NumberOfComponents="3"  format="ascii">0 0.3 0  0 0 0  0.04999999999999999 0 0  0.0514582251803892 0.02410733605106462 0  0.0558116365147896 0.04786313285751154 0  0.06299675146291706 0.07092097740850717 0  0.07290879486935808 0.09294463440875382 0  0.08540322682126872 0.1136129493462312 0  0.1002978503657798 0.132624531648159 0  0.117375468351841 0.1497021496342203 0  0.1363870506537689 0.1645967731787313 0  0.1570553655912463 0.177091205130642 0  0.1790790225914929 0.187003248537083 0  0.2021368671424885 0.1941883634852104 0  0.2258926639489354 0.1985417748196108 0  0.25 0.2 0  0.2741073360510646 0.1985417748196108 0  0.2978631328575116 0.1941883634852104 0  0.3209209774085071 0.187003248537083 0  0.3429446344087537 0.177091205130642 0  0.3636129493462312 0.1645967731787313 0  0.3826245316481591 0.1497021496342202 0  0.3997021496342202 0.132624531648159 0  0.4145967731787313 0.1136129493462312 0  0.427091205130642 0.09294463440875371 0  0.4370032485370829 0.07092097740850713 0  0.4441883634852104 0.04786313285751155 0  0.4485417748196108 0.02410733605106461 0  0.45 0 0  0.55 0 0  0.5514582251803892 0.02410733605106462 0  0.5558116365147896 0.04786313285751154 0  0.5629967514629171 0.07092097740850717 0  0.5729087948693581 0.09294463440875382 0  0.5854032268212688 0.1136129493462312 0  0.6002978503657798 0.132624531648159 0  0.617375468351841 0.1497021496342203 0  0.6363870506537689 0.1645967731787313 0  0.6570553655912463 0.177091205130642 0  0.6790790225914929 0.187003248537083 0  0.7021368671424885 0.1941883634852104 0  0.7258926639489354 0.1985417748196108 0  0.75 0.2 0  0.7741073360510646 0.1985417748196108 0  0.7978631328575116 0.1941883634852104 0  0.8209209774085071 0.187003248537083 0  0.8429446344087537 0.177091205130642 0  0.8636129493462312 0.1645967731787313 0  0.8826245316481591 0.1497021496342202 0  0.8997021496342202 0.132624531648159 0  0.9145967731787312 0.1136129493462312 0  0.927091205130642 0.09294463440875371 0  0.9370032485370829 0.07092097740850713 0  0.9441883634852104 0.04786313285751155 0  0.9485417748196108 0.02410733605106461 0  0.95 0 0  1 0 0  1 0.3 0  0.9758926639489353 0.3014582251803892 0  0.9521368671424885 0.3058116365147896 0  0.9290790225914928 0.3129967514629171 0  0.9070553655912461 0.3229087948693581 0  0.8863870506537688 0.3354032268212687 0  0.867375468351841 0.3502978503657798 0  0.8502978503657798 0.367375468351841 0  0.8354032268212687 0.3863870506537689 0  0.822908794869358 0.4070553655912464 0  0.8129967514629171 0.4290790225914929 0  0.8058116365147896 0.4521368671424885 0  0.8014582251803892 0.4758926639489354 0  0.8 0.4999999999999999 0  0.8014582251803892 0.5241073360510646 0  0.8058116365147896 0.5478631328575115 0  0.8129967514629171 0.5709209774085071 0  0.8229087948693581 0.5929446344087538 0  0.8354032268212688 0.6136129493462312 0  0.8502978503657798 0.632624531648159 0  0.867375468351841 0.6497021496342202 0  0.8863870506537689 0.6645967731787313 0  0.9070553655912463 0.677091205130642 0  0.9290790225914929 0.6870032485370829 0  0.9521368671424885 0.6941883634852104 0  0.9758926639489354 0.6985417748196108 0  1 0.7 0  1 1 0  0.95 1 0  0.9485417748196108 0.9758926639489353 0  0.9441883634852104 0.9521368671424885 0  0.9370032485370829 0.9290790225914928 0  0.927091205130642 0.9070553655912463 0  0.9145967731787312 0.8863870506537688 0  0.8997021496342201 0.8673754683518409 0  0.882624531648159 0.8502978503657798 0  0.863612949346231 0.8354032268212686 0  0.8429446344087537 0.822908794869358 0  0.8209209774085071 0.8129967514629171 0  0.7978631328575114 0.8058116365147896 0  0.7741073360510646 0.8014582251803892 0  0.75 0.8 0  0.7258926639489353 0.8014582251803892 0  0.7021368671424885 0.8058116365147896 0  0.6790790225914928 0.8129967514629171 0  0.6570553655912461 0.8229087948693581 0  0.6363870506537688 0.8354032268212688 0  0.617375468351841 0.8502978503657798 0  0.6002978503657798 0.867375468351841 0  0.5854032268212687 0.8863870506537689 0  0.572908794869358 0.9070553655912463 0  0.5629967514629171 0.9290790225914929 0  0.5558116365147896 0.9521368671424885 0  0.5514582251803892 0.9758926639489355 0  0.55 0.9999999999999999 0  0.45 0.9999999999999999 0  0.4485417748196108 0.9758926639489353 0  0.4441883634852104 0.9521368671424885 0  0.4370032485370829 0.9290790225914928 0  0.427091205130642 0.9070553655912463 0  0.4145967731787313 0.8863870506537688 0  0.3997021496342201 0.8673754683518409 0  0.382624531648159 0.8502978503657798 0  0.363612949346231 0.8354032268212686 0  0.3429446344087536 0.822908794869358 0  0.3209209774085071 0.8129967514629171 0  0.2978631328575115 0.8058116365147896 0  0.2741073360510646 0.8014582251803892 0  0.25 0.8 0  0.2258926639489353 0.8014582251803892 0  0.2021368671424885 0.8058116365147896 0  0.1790790225914928 0.8129967514629171 0  0.1570553655912462 0.8229087948693581 0  0.1363870506537688 0.8354032268212688 0  0.117375468351841 0.8502978503657798 0  0.1002978503657797 0.867375468351841 0  0.08540322682126869 0.8863870506537689 0  0.07290879486935797 0.9070553655912463 0  0.06299675146291703 0.9290790225914929 0  0.05581163651478957 0.9521368671424885 0  0.0514582251803892 0.9758926639489355 0  0.04999999999999999 0.9999999999999999 0  0 1 0  -0 0.7000000000000001 0  0.0241073360510646 0.6985417748196108 0  0.04786313285751161 0.6941883634852104 0  0.07092097740850711 0.6870032485370829 0  0.09294463440875372 0.677091205130642 0  0.1136129493462312 0.6645967731787312 0  0.1326245316481591 0.6497021496342202 0  0.1497021496342202 0.632624531648159 0  0.1645967731787313 0.6136129493462312 0  0.177091205130642 0.5929446344087537 0  0.187003248537083 0.5709209774085071 0  0.1941883634852104 0.5478631328575115 0  0.1985417748196108 0.5241073360510646 0  0.2 0.5 0  0.1985417748196108 0.4758926639489353 0  0.1941883634852104 0.4521368671424885 0  0.1870032485370829 0.4290790225914928 0  0.177091205130642 0.4070553655912463 0  0.1645967731787313 0.3863870506537688 0  0.1497021496342202 0.3673754683518409 0  0.132624531648159 0.3502978503657798 0  0.113612949346231 0.3354032268212686 0  0.09294463440875361 0.322908794869358 0  0.07092097740850711 0.3129967514629171 0  0.04786313285751148 0.3058116365147896 0  0.02410733605106464 0.3014582251803892 0  0.6985417748196108 0.5241073360510646 0  0.7 0.5 0  0.6985417748196108 0.4758926639489353 0  0.6941883634852104 0.4521368671424885 0  0.6870032485370829 0.4290790225914928 0  0.677091205130642 0.4070553655912463 0  0.6645967731787312 0.3863870506537688 0  0.6497021496342201 0.3673754683518409 0  0.632624531648159 0.3502978503657798 0  0.613612949346231 0.3354032268212686 0  0.5929446344087537 0.322908794869358 0  0.5709209774085071 0.3129967514629171 0  0.5478631328575114 0.3058116365147896 0  0.5241073360510646 0.3014582251803892 0  0.4999999999999999 0.3 0  0.4758926639489353 0.3014582251803892 0  0.4521368671424885 0.3058116365147896 0  0.4290790225914928 0.3129967514629171 0  0.4070553655912462 0.3229087948693581 0  0.3863870506537688 0.3354032268212687 0  0.367375468351841 0.3502978503657798 0  0.3502978503657798 0.367375468351841 0  0.3354032268212687 0.3863870506537689 0  0.322908794869358 0.4070553655912464 0  0.3129967514629171 0.4290790225914929 0  0.3058116365147896 0.4521368671424885 0  0.3014582251803892 0.4758926639489354 0  0.3 0.4999999999999999 0  0.3014582251803892 0.5241073360510646 0  0.3058116365147896 0.5478631328575115 0  0.3129967514629171 0.5709209774085071 0  0.3229087948693581 0.5929446344087538 0  0.3354032268212687 0.6136129493462312 0  0.3502978503657798 0.632624531648159 0  0.367375468351841 0.6497021496342202 0  0.3863870506537689 0.6645967731787313 0  0.4070553655912463 0.677091205130642 0  0.4290790225914929 0.6870032485370829 0  0.4521368671424885 0.6941883634852104 0  0.4758926639489354 0.6985417748196108 0  0.4999999999999999 0.7 0  0.5241073360510646 0.6985417748196108 0  0.5478631328575116 0.6941883634852104 0  0.5709209774085071 0.6870032485370829 0  0.5929446344087537 0.677091205130642 0  0.6136129493462312 0.6645967731787312 0  0.6326245316481591 0.6497021496342202 0  0.6497021496342202 0.632624531648159 0  0.6645967731787312 0.6136129493462312 0  0.677091205130642 0.5929446344087537 0  0.6870032485370829 0.5709209774085071 0  0.6941883634852104 0.5478631328575115 0  0 0.15 0  1 0.15 0  1 0.85 0  0 0.8500000000000001 0  0 0.075 0  1 0.075 0  1 0.925 0  0 0.925 0  0.5 0.8127595604293815 0  0.5069440078039168 0.190422209288238 0  0.25 0.3127595604293815 0  0.756944007803917 0.3095777907117619 0  0.756944007803917 0.6904222092882382 0  0.25 0.6872404395706185 0  0 0.225 0  0.4255768646051012 0.2241073097134061 0  1 0.7749999999999999 0  0.6773391559270888 0.2766774022734219 0  1 0.225 0  0.6755768646051011 0.7241073097134062 0  0 0.7750000000000001 0  0.5818971135297744 0.2287925518358889 0  0.8318971135297746 0.728792551835889 0  0.1659156081861886 0.7301636995921477 0  0.08376842746533225 0.2299656297760495 0  0.4236002201977974 0.7746535834185855 0  0.0840843918138115 0.7698363004078523 0  0.3340843918138113 0.7301636995921477 0  0.3340843918138114 0.2698363004078523 0  0.9159156081861887 0.2301636995921477 0  0.5840843918138116 0.7698363004078522 0  0.1659156081861887 0.2698363004078523 0  0.9162315725346678 0.7700343702239506 0  0.8340843918138114 0.2698363004078523 0  0.75 0.6146645247768686 0  0.5 0.1125158665330878 0  0.75 0.3874841334669124 0  0.2504983345544904 0.6122915843562002 0  0.2504983345544902 0.3877084156437999 0  0.5 0.8879783056303169 0  0.7005361650220154 0.3333055947145943 0  0.70416808765371 0.6599554817221275 0  0.449930214263529 0.1678187287522426 0  0.2247310981387008 0.7415600637745463 0  0.5155081196221678 0.7563797802146907 0  0.2752689018612993 0.2584399362254537 0  0.05605196690611226 0.8246131191226815 0  0.9439480330938878 0.1
[...]
<PointData  Scalars="Temperature"> 
<DataArray  type="Float64"  Name="Temperature"  format="ascii">7.4226585081279040e+01  7.4981110463590184e+01  7.4979869730314093e+01  7.4962763762778778e+01  7.4914919107336331e+01  7.4840480266677545e+01  7.4740842306501619e+01  7.4616969457605435e+01  7.4470003122591038e+01  7.4297760550249919e+01  7.4095414461163116e+01  7.3865369083312316e+01  7.3614516014937351e+01  7.3348644712744871e+01  7.3073566510246962e+01  7.2796386989956773e+01  7.2517681688138566e+01  7.2235941949145129e+01  7.1956053202737607e+01  7.1675831091068417e+01  7.1408916980354306e+01  7.1164830071339793e+01  7.0953928549849053e+01  7.0790799304743857e+01  7.0674332354885678e+01  7.0602959164355596e+01  7.0564228024718290e+01  7.0548641955449597e+01  7.0544828558878820e+01  7.0491855628861316e+01  7.0476744819486981e+01  7.0429808972859249e+01  7.0341836890470475e+01  7.0205057077272059e+01  7.0007337520002139e+01  6.9747890061894367e+01  6.9430988465304111e+01  6.9067214351114956e+01  6.8672864505096697e+01  6.8271034563116416e+01  6.7885122837672299e+01  6.7534643930229493e+01  6.7231507760529993e+01  6.6979142995268845e+01  6.6774370950705773e+01  6.6613337327008949e+01  6.6485000216476521e+01  6.6383404079288809e+01  6.6303038126197805e+01  6.6238115106798276e+01  6.6185848688934570e+01  6.6143187675514412e+01  6.6109490472223541e+01  6.6084488145697364e+01  6.6068442948280804e+01  6.6062718086388941e+01  6.6062249442905269e+01  6.6281141542126093e+01  6.6289376311000495e+01  6.6312516993286891e+01  6.6345708417950192e+01  6.6379935794637760e+01  6.6402864138289061e+01  6.6398161095188826e+01  6.6348702086984218e+01  6.6241400531056954e+01  6.6070174868536910e+01  6.5822716703410222e+01  6.5513526521628663e+01  6.5156600288870422e+01  6.4774945522568188e+01  6.4394405597924887e+01  6.4036461898212480e+01  6.3704779776735194e+01  6.3403320141693172e+01  6.3120891236586381e+01  6.2853520303449137e+01  6.2602396517015976e+01  6.2364349836165104e+01  6.2150484454979534e+01  6.1968807057324341e+01  6.1830953990059371e+01  6.1745804908995012e+01  6.1715927312623045e+01  6.1060591258616121e+01  6.1061594407873066e+01  6.1076364671683322e+01  6.1117787327624534e+01  6.1182237035238764e+01  6.1268725578561458e+01  6.1376120052968339e+01  6.1504398909838926e+01  6.1655299264734445e+01  6.1829613806148068e+01  6.2028989573123937e+01  6.2249620273286858e+01  6.2483090203059120e+01  6.2726900993887035e+01  6.2970425136931205e+01  6.3218979580831999e+01  6.3469702968009713e+01  6.3722219571318128e+01  6.3972427755009242e+01  6.4215073915039028e+01  6.4433391284979237e+01  6.4624028367908153e+01  6.4769958473331570e+01  6.4875444418396839e+01  6.4938716180127344e+01  6.4970910537792520e+01  6.4984689560040991e+01  6.4987834966012528e+01  6.5036310209043990e+01  6.5051641934511778e+01  6.5096818384548627e+01  6.5178567063384492e+01  6.5306570866196168e+01  6.5492855233134165e+01  6.5735373415129843e+01  6.6033606592025080e+01  6.6372835691506580e+01  6.6742188234105228e+01  6.7115666245211955e+01  6.7470642004522489e+01  6.7793213371989836e+01  6.8064840477351680e+01  6.8286673551319168e+01  6.8458022536024401e+01  6.8588068257240707e+01  6.8685112364666992e+01  6.8758032224021179e+01  6.8813509851834056e+01  6.8856146321278729e+01  6.8889170511501661e+01  6.8915662973162895e+01  6.8936098323526622e+01  6.8951335572269159e+01  6.8960643243625270e+01  6.8964151624436226e+01  6.8964262527689570e+01  6.8846213265980964e+01  6.8841983414282666e+01  6.8830933828641079e+01  6.8817423011452590e+01  6.8808830782375949e+01  6.8816457593401097e+01  6.8854410960519942e+01  6.8937435644199596e+01  6.9080907346188511e+01  6.9291627043412262e+01  6.9576096958264699e+01  6.9926558819361802e+01  7.0329342733297707e+01  7.0756432458648234e+01  7.1183266657915610e+01  7.1587961458432687e+01  7.1960569747735207e+01  7.2301629851780703e+01  7.2621586242687371e+01  7.2925015927482363e+01  7.3214015964271042e+01  7.3483060934912629e+01  7.3727267911944750e+01  7.3935710419346691e+01  7.4092113338888694e+01  7.4191745211685969e+01  6.4440548199372159e+01  6.4811099469868708e+01  6.5207592512065858e+01  6.5611394045285678e+01  6.6011496441899553e+01  6.6406569613081771e+01  6.6804538842240220e+01  6.7215004196573133e+01  6.7645498287649829e+01  6.8087567192385933e+01  6.8537821039704525e+01  6.8990474309844871e+01  6.9429643192794856e+01  6.9850769343102556e+01  7.0249978224638511e+01  7.0624453683007459e+01  7.0970400217679710e+01  7.1287208445773615e+01  7.1566166702193172e+01  7.1798696259608946e+01  7.1964699936739251e+01  7.2056160164207753e+01  7.2058079586181151e+01  7.1965825759393866e+01  7.1772850137421088e+01  7.1491963431266029e+01  7.1134296070914360e+01  7.0721168850618284e+01  7.0282419495859443e+01  6.9841079362131552e+01  6.9413018576999505e+01  6.8990219933829763e+01  6.8578669683924275e+01  6.8166886851818688e+01  6.7746081515564441e+01  6.7319671595291908e+01  6.6884492131287672e+01  6.6459201654355411e+01  6.6043762739822924e+01  6.5651915558731190e+01  6.5281550849023361e+01  6.4936229317285992e+01  6.4615599971731427e+01  6.4327287984414468e+01  6.4071609507037351e+01  6.3861113428679054e+01  6.3709276319458517e+01  6.3624246753224575e+01  6.3619915648487478e+01  6.3702181623876641e+01  6.3872178764141587e+01  6.4123024029594518e+01  7.4617376912047519e+01  6.6179576629328835e+01  6.1374919398599630e+01  6.8895225689323397e+01  7.4869781174426052e+01  6.6099295605339634e+01  6.1156891187266233e+01  6.8942400874582844e+01  6.5182219424167684e+01  7.0278713555695376e+01  7.2595253947366118e+01  6.6828200590779048e+01  6.3094177948922301e+01  6.8471133472453374e+01  7.4360493796018787e+01  7.1081426793267084e+01  6.1597994264846733e+01  6.7767245975120829e+01  6.6250472401166448e+01  6.3577273795048448e+01  6.8858252341654847e+01  6.9302982575625933e+01  6.2445934020248103e+01  6.8660015344274115e+01  7.4130721338297008e+01  6.6076268473108655e+01  6.8806782467230519e+01  6.7429605976921835e+01  7.2028796819312092e+01  6.6331402390595926e+01  6.4414915101239018e+01  7.3413866882734823e+01  6.1798332918370058e+01  6.6566440872277639e+01  6.3515543352798453e+01  7.0440595209154154e+01  6.6245756826972851e+01  6.9131580018276011e+01  7.2151426885042639e+01  6.5088662938894302e+01  6.7077771835075993e+01  6.3454571770366449e+01  7.0760842006286467e+01  6.8365013638206776e+01  6.5073283302245159e+01  7.2523398732081887e+01  6.8859799826857241e+01  6.6237311575430169e+01  7.4446837389288248e+01  6.1537653565262730e+01  7.0471890750915023e+01  6.3162216661462686e+01  6.7271235860268206e+01  6.5612000795366129e+01  6.8764808602610572e+01  7.2940988377338726e+01  6.8118858543790381e+01  7.2212546441419605e+01  6.4728324311966603e+01  7.0497222402355717e+01  6.5579930457828794e+01  6.4180710639018557e+01  7.1558712783060756e+01  7.0018394966606181e+01  6.5011511720895442e+01  6.5033738462250781e+01  7.2977270140256621e+01  6.7973511146652200e+01  6.9802807509494301e+01  6.3091889281106781e+01  6.6510430139469051e+01  6.8530629789139738e+01  7.1532039313759014e+01  7.1687987125965350e+01  6.3929665013224536e+01  6.4071092475610683e+01  6.8376078174050491e+01  6.2789739925043982e+01  6.6856819796223320e+01  6.4874394804972781e+01  7.0518709187685801e+01  7.0828112054608383e+01  6.6742068064023400e+01  6.6834572843647294e+01  6.9903427444030314e+01  6.2077488289332138e+01  6.2115618284129567e+01  6.5534962831267634e+01  7.3863731641734432e+01  6.8840274215231389e+01  6.6382103351385723e+01  6.8709077124724885e+01  7.3734319467222420e+01  6.8774421202160752e+01  6.6286099641426560e+01  6.6466973441889621e+01  6.1734740326196821e+01  7.4202770271628879e+01  6.6171854645934772e+01  6.1329932530485856e+01  7.4670439792740027e+01  6.8898854650456485e+01  6.6327025245941627e+01  6.2791670089222592e+01  7.0154605392920232e+01  6.3327029873698351e+01  6.4377323076803577e+01  6.7558517555714118e+01  7.3346655924902393e+01  6.6320524301704708e+01  7.1955969292724220e+01  6.8777567456630834e+01  6.8804962014052464e+01  7.4226012126476562e+01  6.1738145374588875e+01  6.9019899674796903e+01  7.2515926977668215e+01  6.4988348647344324e+01  6.2533945401118984e+01  7.2306891974942815e+01  6.8634693513660295e+01  6.7789882674202062e+01  6.7733698964629014e+01  6.6158697052479184e+01  7.0949065676385345e+01  6.3718465553638524e+01  7.1228842596002679e+01  6.3559710919903118e+01  6.5336972131722945e+01  6.5942223518991497e+01  6.9225555914009078e+01  6.7244398511346375e+01  6.2477041015240047e+01  6.9092444583203388e+01  6.8517589890811848e+01  7.2095815089820192e+01  6.7511375030979835e+01  7.3335297537744793e+01  6.6457254268800568e+01  6.4468708598399630e+01  7.0644853094263880e+01  7.4338975786067550e+01  6.6647493636933447e+01  6.6266504775826448e+01  6.8846617075593286e+01  6.4888737844448414e+01  6.8874008320244656e+01  6.6218694133183902e+01  6.6691457758870570e+01  6.1485701008731837e+01  7.0645391325469546e+01  6.6667302314824653e+01  6.6573910188428258e+01  7.0472066844534623e+01  7.4483299040543272e+01  6.3750897548908867e+01  6.3708443572442341e+01  6.3264974924286612e+01  6.9560605523501806e+01  7.2113901083567512e+01  6.8778169391949575e+01  7.2095970071411827e+01  6.8815817270538957e+01  7.0550923501733990e+01  7.0388145996035604e+01  6.5902149735479114e+01  6.6069343434295732e+01  6.4878150515873912e+01  6.4985949382114200e+01  6.5169322482193024e+01  6.1492441350055834e+01  6.8849367072557882e+01  6.1259243075868397e+01  6.6271549449264953e+01  7.4266057870357429e+01  6.6072091738302476e+01  7.4951730438070385e+01  6.6137556984837502e+01  6.6123605363873949e+01  7.4751848796013334e+01  6.1085927242236153e+01  6.8958434283575002e+01  6.1680300114319387e+01  6.8919819477724147e+01  6.8927522366911631e+01  7.1847939407925281e+01  6.9481729959470840e+01  6.8549376760053107e+01  7.2301530685963115e+01  6.5297288046286326e+01  6.1908461456805995e+01  6.7977780308215642e+01  7.2918859924184787e+01  6.2898641923783323e+01  6.3376765429194741e+01  6.5459101426682977e+01  6.1626575190578883e+01  6.4710929252851784e+01  7.0059371145962317e+01  6.8781764057531007e+01  7.2505213078886072e+01  7.3726878314339061e+01  6.8863449593974238e+01  7.0139705306269462e+01  6.6947595369990850e+01  6.6563146263659803e+01  6.4833960903115454e+01  6.3523113060020826e+01  6.3600416598774999e+01  6.1215946131843083e+01  7.4801441806908514e+01  7.4000813279184683e+01  6.2828558566574969e+01  6.8156591104524011e+01  7.2876212464673145e+01  6.6458526661120231e+01  6.9721110112325221e+01  6.3506765326117069e+01  6.6327112549723822e+01  6.6990001399278228e+01  7.1378867500879394e+01  6.3808011293660002e+01  6.6355216124138792e+01  7.4911432747702889e+01  6.6091833568866477e+01  6.1121068883058697e+01  6.8950284760521924e+01  6.6545160736650629e+01  6.3982634188209566e+01  7.0794065740711901e+01  6.8869450610305151e+01  6.8880022704298142e+01  6.6218389030873411e+01  6.6205877605848613e+01  6.7076498798603680e+01  7.4413103812948378e+01  7.4295168065714790e+01  7.4533169630394781e+01  7.0983369409432143e+01  7.0902631532453100e+01  7.4039615117133067e+01  6.5481305466911010e+01  6.8792697939731127e+01  6.8733670328612888e+01  6.6410978511298225e+01  6.7456036682752710e+01  6.7068500488711109e+01  7.1519675199759732e+01  6.3937981109646955e+01  6.1425831496954565e+01  6.3566984475186992e+01  6.3292063162985109e+01  6.9488109513411317e+01  6.4993756556898731e+01  6.6422712747104384e+01  7.0531987474381140e+01  7.0493842308364634e+01  6.5226269928106603e+01  6.5415900988685536e+01  7.1202561706267744e+01  7.1397076878086807e+01  6.7519237974190986e+01  6.2290275659453542e+01  6.5056041963544217e+01  6.8467341793974299e+01  7.2258311228494037e+01  6.7131545084136036e+01  7.3142740972607683e+01  6.7821242431216305e+01  6.8236280351231784e+01  6.8550268116430459e+01  7.2410000330976899e+01  7.2693566669877967e+01  6.8332879591651206e+01  6.4563994745356027e+01  6.4721118231118922e+01  7.2386899098188024e+01  6.8695651648425709e+01  7.2121251364542275e+01  7.3056083150564291e+01  6.7985528426435295e+01  6.8927933715026171e+01  6.4947680022325457e+01  6.4520967162445302e+01  6.4583177709249554e+01  7.0504157919421345e+01  7.0425545845759288e+01  7.3627757654150415e+01  6.3399494874234612e+01  6.3289114407064389e+01  6.3130502337616939e+01  7.1281220643581790e+01  6.3786844828071104e+01  6.5154506420487976e+01  7.1242126285233923e+01  6.5585402381047814e+01  6.5789988287384958e+01  6.6962327677021193e+01  7.0446664963343579e+01  7.0369678469636867e+01  6.7486101394175080e+01  6.8086987130856272e+01  6.1656427312599554e+01  7.3984730606369908e+01  6.6348707558375025e+01  6.9886113305767623e+01  6.2139262076588516e+01  6.1922633525501595e+01  6.6649676599429228e+01  6.6550947801408384e+01  6.6533987741932208e+01  6.8617559111825031e+01  7.1695591458179507e+01  7.1835042301505027e+01  6.4112719222460584e+01  6.4205625787054444e+01  6.6540091290077171e+01  6.9439324253869842e+01  7.0322874272459828e+01  6.8937871476703094e+01  6.6397241624330675e+01  6.3764678168722220e+01  6.6291120252256377e+01  6.8832513494895281e+01  6.9668361329856310e+01  6.1061098997701336e+01  6.6062469640954134e+01  7.4980588660656863e+01  6.8964245747040721e+01  7.0527025839345526e+01  6.8766528396758886e+01  7.1794483909716703e+01  6.5883652789784634e+01  6.3716593210023653e+01  6.6432360361618805e+01  7.0445835073565476e+01  7.0545062809803937e+01  7.1891902991017730e+01  6.6816602135862894e+01  6.2324593696119265e+01  6.2177794749790017e+01  6.1974681868731011e+01  6.2294866265734591e+01  6.4229374990910756e+01  7.1855534539585065e+01  6.9292333307658723e+01  6.5015998363791937e+01  6.4994994621406192e+01  6.5062256542293568e+01  6.4094753156839303e+01  6.4057381684939116e+01  7.0006887987953959e+01  6.9888000681798502e+01  7.3542469813468784e+01  7.2111520710131998e+01  6.6455108690814285e+01  7.3942171014648665e+01  6.8659375421606427e+01  6.7126178559400714e+01  6.5944563002259642e+01  7.4303399921732080e+01  7.0807184438415874e+01  6.3120401473380348e+01  6.3065289077860847e+01  6.1600272938839034e+01  6.8446470224157949e+01  7.3220338182644312e+01  6.7706301487108988e+01  6.8646423413754576e+01  6.8725636413417732e+01  6.8764929622253973e+01  7.0973114336943752e+01  6.5007684458771863e+01  7.4548694266837998e+01  6.1880118131818008e+01  7.1772753573345042e+01  6.8125781312384788e+01  6.8862435072026386e+01  6.6234083208999962e+01  6.3318360663333301e+01  6.7421316654920261e+01  7.2043076402840967e+01  6.4531884012887147e+01  7.2787129937364483e+01  6.5581516112052313e+01  6.1653886601253724e+01  6.8803119100111402e+01  6.8139355086699851e+01  7.1551592840278033e+01  6.6365865606027157e+01  7.0471248178728729e+01  6.6072715547949088e+01  6.8960049761627133e+01  7.4960214310009505e+01  6.1078402426375234e+01  6.8152529033387296e+01  6.6433230945262665e+01  6.2076743616622316e+01  6.6540352283659217e+01  6.8740886701278470e+01  6.8073317780168779e+01  6.6328850993835388e+01  6.4290268740221308e+01  7.4110379408195712e+01  6.8826656632131716e+01  6.8795726430809992e+01  6.8373830802715688e+01  6.6694410078842708e+01  6.6804744142915794e+01  6.7235652635828203e+01  6.8837343799084834e+01  6.6296806626009342e+01  6.8851226469560245e+01  6.6107845571074805e+01  7.0023215890687297e+01  7.2659154946080662e+01  6.9192674243453922e+01  6.2660526951913013e+01  7.2734454874096684e+01  6.5149889668012378e+01  6.2582628357748234e+01  6.2970114652375415e+01  6.2956619649956316e+01  6.7119321008246729e+01  6.5114822219621246e+01  6.1721275092201097e+01  7.0317662346319807e+01  7.3169771508886697e+01  6.7654467691380574e+01  6.5204674524875401e+01  6.3628651826785010e+01  6.9079173415591328e+01  6.8769692845030818e+01  6.1543740717596400e+01  7.2484770002901541e+01  6.8352372705078835e+01  7.0500145014681635e+01  6.5028654995168097e+01  7.0537191160884703e+01  7.0203435682324496e+01  7.3479385114017134e+01  6.6274344940627813e+01  6.8841028834361737e+01  6.8823209764928535e+01  6.6298632068389523e+01  6.6262645757123479e+01  6.6262289426626410e+01  6.1605848506015690e+01  7.4439638470841246e+01  6.8842548369790819e+01  7.2374256425050774e+01  6.4982323730185428e+01  7.0188952642698823e+01  6.9593530703780530e+01  6.8513943553230476e+01  7.0770298868430586e+01  7.2063198519225281e+01  7.2776090150686997e+01  6.6403502472661046e+01  6.8910930910884318e+01  6.6163484481451974e+01  6.2368112939356301e+01  6.8834417798130204e+01  6.5761649591021481e+01  7.3843786964122373e+01  6.6364409123251761e+01  7.3591215932484417e+01  7.3771122791863576e+01  6.1813679576683491e+01  6.1719710472267344e+01  7.4221259279823627e+01  7.4234211211597682e+01  7.1564392756954931e+01  6.5878947312714331e+01  6.5816221536032387e+01  6.6216332397952328e+01  6.5842346426651332e+01  6.5317438720711422e+01  6.7066104158096380e+01  6.1468673037111436e+01  6.4853426988680738e+01  6.6424873661270013e+01  7.2196467857491314e+01  7.1235491148096855e+01  6.6438027305995007e+01  6.5222201867170654e+01  6.4926284373337225e+01  6.5646813243330556e+01  6.3372071920907644e+01  7.1952548196516787e+01  7.0626647673471197e+01  6.8861226387168983e+01  6.9122304440098006e+01  6.9007524758226609e+01  7.2361854425716558e+01  6.1315994472198810e+01  7.4685574852234254e+01  7.4625190817067377e+01  7.4631341706306131e+01  6.1388749751209438e+01  6.1272942898013596e+01  6.2471892599087120e+01  6.8396748176746911e+01  6.2729388619138795e+01  6.9657462319437940e+01  6.3547619875692455e+01  6.6204237998058630e+01  6.6178760587136281e+01  6.8880982723867319e+01  6.8907226542224109e+01  6.8895798942840798e+01  6.4975713327417850e+01  7.4736850720295607e+01  6.8914970999845636e+01  6.6145417543166232e+01  6.1883863780374831e+01  7.0006836252261365e+01  6.5290709695845607e+01  6.9473380448274099e+01  7.2322738795415802e+01  6.8873027688301889e+01  6.6278161846908830e+01  6.8846888705953575e+01  6.4259477831242165e+01  6.2927386301104860e+01  6.2941749639129995e+01  6.2588193808367627e+01  7.3087874443274686e+01  6.5134167428448052e+01  7.4163929936423202e+01  6.2726133972538193e+01  6.8780443920195097e+01  6.6348084096301747e+01  6.9284764785869271e+01  6.9968041888134152e+01  6.1351712355307626e+01  6.5435496261997642e+01  7.4146338904518231e+01  6.3076178938036790e+01  6.6064463999551535e+01  6.3893872105723887e+01  7.1904268413471186e+01  6.7796590988744555e+01  6.4912419032695581e+01  6.5350214776599074e+01  6.4688259537422212e+01  6.6210435959025673e+01  7.3161257754276733e+01  7.0865769245638660e+01  6.7303934106025793e+01  6.6605179370259805e+01  6.6418627041358278e+01  6.6797698359926855e+01  6.6842646717031428e+01  6.5080712435291943e+01  6.8519588631403366e+01  6.8809059484873046e+01  6.7458700324909287e+01  6.6278991067351328e+01  6.8845513885291780e+01  6.6362341039951744e+01  7.2462347368442224e+01  6.8594642711370710e+01  7.0549495562868344e+01  7.0508072666090214e+01  7.0711754387724710e+01  6.6681073433700746e+01  6.6169597311778205e+01  6.3416157927146685e+01  6.3420959729241304e+01  6.3259637716332939e+01  6.7341869450506579e+01  6.1706252907238898e+01  6.6273421803149489e+01  6.7868423940949242e+01  7.4177674064709947e+01  7.4348563003767225e+01  7.3542352603317198e+01  6.7763411153891710e+01  6.7819309478048567e+01  6.7540320558334884e+01  6.6241893237577585e+01  6.4338062928853176e+01  7.3271006085426976e+01  7.1905638405402101e+01  6.1738897977671456e+01  7.0708330291971734e+01  7.1018201329034525e+01  6.6488573880669236e+01  7.3050880783397659e+01  6.3801192844840884e+01  7.1109977645145179e+01  6.3666553528553891e+01  7.1166403553356886e+01  6.6055988688918134e+01  6.6274495100787064e+01  6.4554138184739671e+01  7.2091936706821926e+01  6.4463830367070031e+01  6.3584183235392146e+01  6.6629626882443034e+01  6.6312246468326052e+01  7.2095465374035143e+01  6.5181499843938880e+01  6.7792712969195307e+01  7.0365245946639391e+01  6.7785305372562448e+01  6.4571521520744028e+01  7.1043596021869149e+01  6.1273025704528713e+01  7.4712369446239293e+01  7.071