<?xml version="1.0"?>
<VTKFile type="UnstructuredGrid"  version="0.1"  >
<UnstructuredGrid>
<Piece  NumberOfPoints="2331" NumberOfCells="4248">
<Points>
<DataArray  type="Float64"  NumberOfComponents="3"  format="ascii">0 0.3 0  0 0 0  0.04999999999999999 0 0  0.0514582251803892 0.02410733605106462 0  0.0558116365147896 0.04786313285751154 0  0.06299675146291706 0.07092097740850717 0  0.07290879486935808 0.09294463440875382 0  0.08540322682126872 0.1136129493462312 0  0.1002978503657798 0.132624531648159 0  0.117375468351841 0.1497021496342203 0  0.1363870506537689 0.1645967731787313 0  0.1570553655912463 0.177091205130642 0  0.1790790225914929 0.187003248537083 0  0.2021368671424885 0.1941883634852104 0  0.2258926639489354 0.1985417748196108 0  0.25 0.2 0  0.2741073360510646 0.1985417748196108 0  0.2978631328575116 0.1941883634852104 0  0.3209209774085071 0.187003248537083 0  0.3429446344087537 0.177091205130642 0  0.3636129493462312 0.1645967731787313 0  0.3826245316481591 0.1497021496342202 0  0.3997021496342202 0.132624531648159 0  0.4145967731787313 0.1136129493462312 0  0.427091205130642 0.09294463440875371 0  0.4370032485370829 0.07092097740850713 0  0.4441883634852104 0.04786313285751155 0  0.4485417748196108 0.02410733605106461 0  0.45 0 0  0.55 0 0  0.5514582251803892 0.02410733605106462 0  0.5558116365147896 0.04786313285751154 0  0.5629967514629171 0.07092097740850717 0  0.5729087948693581 0.09294463440875382 0  0.5854032268212688 0.1136129493462312 0  0.6002978503657798 0.132624531648159 0  0.617375468351841 0.1497021496342203 0  0.6363870506537689 0.1645967731787313 0  0.6570553655912463 0.177091205130642 0  0.6790790225914929 0.187003248537083 0  0.7021368671424885 0.1941883634852104 0  0.7258926639489354 0.1985417748196108 0  0.75 0.2 0  0.7741073360510646 0.1985417748196108 0  0.7978631328575116 0.1941883634852104 0  0.8209209774085071 0.187003248537083 0  0.8429446344087537 0.177091205130642 0  0.8636129493462312 0.1645967731787313 0  0.8826245316481591 0.1497021496342202 0  0.8997021496342202 0.132624531648159 0  0.9145967731787312 0.1136129493462312 0  0.927091205130642 0.09294463440875371 0  0.9370032485370829 0.07092097740850713 0  0.9441883634852104 0.04786313285751155 0  0.9485417748196108 0.02410733605106461 0  0.95 0 0  1 0 0  1 0.3 0  0.9758926639489353 0.3014582251803892 0  0.9521368671424885 0.3058116365147896 0  0.9290790225914928 0.3129967514629171 0  0.9070553655912461 0.3229087948693581 0  0.8863870506537688 0.3354032268212687 0  0.867375468351841 0.3502978503657798 0  0.8502978503657798 0.367375468351841 0  0.8354032268212687 0.3863870506537689 0  0.822908794869358 0.4070553655912464 0  0.8129967514629171 0.4290790225914929 0  0.8058116365147896 0.4521368671424885 0  0.8014582251803892 0.4758926639489354 0  0.8 0.4999999999999999 0  0.8014582251803892 0.5241073360510646 0  0.8058116365147896 0.5478631328575115 0  0.8129967514629171 0.5709209774085071 0  0.8229087948693581 0.5929446344087538 0  0.8354032268212688 0.6136129493462312 0  0.8502978503657798 0.632624531648159 0  0.867375468351841 0.6497021496342202 0  0.8863870506537689 0.6645967731787313 0  0.9070553655912463 0.677091205130642 0  0.9290790225914929 0.6870032485370829 0  0.9521368671424885 0.6941883634852104 0  0.9758926639489354 0.6985417748196108 0  1 0.7 0  1 1 0  0.95 1 0  0.9485417748196108 0.9758926639489353 0  0.9441883634852104 0.9521368671424885 0  0.9370032485370829 0.9290790225914928 0  0.927091205130642 0.9070553655912463 0  0.9145967731787312 0.8863870506537688 0  0.8997021496342201 0.8673754683518409 0  0.882624531648159 0.8502978503657798 0  0.863612949346231 0.8354032268212686 0  0.8429446344087537 0.822908794869358 0  0.8209209774085071 0.8129967514629171 0  0.7978631328575114 0.8058116365147896 0  0.7741073360510646 0.8014582251803892 0  0.75 0.8 0  0.7258926639489353 0.8014582251803892 0  0.7021368671424885 0.8058116365147896 0  0.6790790225914928 0.8129967514629171 0  0.6570553655912461 0.8229087948693581 0  0.6363870506537688 0.8354032268212688 0  0.617375468351841 0.8502978503657798 0  0.6002978503657798 0.867375468351841 0  0.5854032268212687 0.8863870506537689 0  0.572908794869358 0.9070553655912463 0  0.5629967514629171 0.9290790225914929 0  0.5558116365147896 0.9521368671424885 0  0.5514582251803892 0.9758926639489355 0  0.55 0.9999999999999999 0  0.45 0.9999999999999999 0  0.4485417748196108 0.9758926639489353 0  0.4441883634852104 0.9521368671424885 0  0.4370032485370829 0.9290790225914928 0  0.427091205130642 0.9070553655912463 0  0.4145967731787313 0.8863870506537688 0  0.3997021496342201 0.8673754683518409 0  0.382624531648159 0.8502978503657798 0  0.363612949346231 0.8354032268212686 0  0.3429446344087536 0.822908794869358 0  0.3209209774085071 0.8129967514629171 0  0.2978631328575115 0.8058116365147896 0  0.2741073360510646 0.8014582251803892 0  0.25 0.8 0  0.2258926639489353 0.8014582251803892 0  0.2021368671424885 0.8058116365147896 0  0.1790790225914928 0.8129967514629171 0  0.1570553655912462 0.8229087948693581 0  0.1363870506537688 0.8354032268212688 0  0.117375468351841 0.8502978503657798 0  0.1002978503657797 0.867375468351841 0  0.08540322682126869 0.8863870506537689 0  0.07290879486935797 0.9070553655912463 0  0.06299675146291703 0.9290790225914929 0  0.05581163651478957 0.9521368671424885 0  0.0514582251803892 0.9758926639489355 0  0.04999999999999999 0.9999999999999999 0  0 1 0  -0 0.7000000000000001 0  0.0241073360510646 0.6985417748196108 0  0.04786313285751161 0.6941883634852104 0  0.07092097740850711 0.6870032485370829 0  0.09294463440875372 0.677091205130642 0  0.1136129493462312 0.6645967731787312 0  0.1326245316481591 0.6497021496342202 0  0.1497021496342202 0.632624531648159 0  0.1645967731787313 0.6136129493462312 0  0.177091205130642 0.5929446344087537 0  0.187003248537083 0.5709209774085071 0  0.1941883634852104 0.5478631328575115 0  0.1985417748196108 0.5241073360510646 0  0.2 0.5 0  0.1985417748196108 0.4758926639489353 0  0.1941883634852104 0.4521368671424885 0  0.1870032485370829 0.4290790225914928 0  0.177091205130642 0.4070553655912463 0  0.1645967731787313 0.3863870506537688 0  0.1497021496342202 0.3673754683518409 0  0.132624531648159 0.3502978503657798 0  0.113612949346231 0.3354032268212686 0  0.09294463440875361 0.322908794869358 0  0.07092097740850711 0.3129967514629171 0  0.04786313285751148 0.3058116365147896 0  0.02410733605106464 0.3014582251803892 0  0.6985417748196108 0.5241073360510646 0  0.7 0.5 0  0.6985417748196108 0.4758926639489353 0  0.6941883634852104 0.4521368671424885 0  0.6870032485370829 0.4290790225914928 0  0.677091205130642 0.4070553655912463 0  0.6645967731787312 0.3863870506537688 0  0.6497021496342201 0.3673754683518409 0  0.632624531648159 0.3502978503657798 0  0.613612949346231 0.3354032268212686 0  0.5929446344087537 0.322908794869358 0  0.5709209774085071 0.3129967514629171 0  0.5478631328575114 0.3058116365147896 0  0.5241073360510646 0.3014582251803892 0  0.4999999999999999 0.3 0  0.4758926639489353 0.3014582251803892 0  0.4521368671424885 0.3058116365147896 0  0.4290790225914928 0.3129967514629171 0  0.4070553655912462 0.3229087948693581 0  0.3863870506537688 0.3354032268212687 0  0.367375468351841 0.3502978503657798 0  0.3502978503657798 0.367375468351841 0  0.3354032268212687 0.3863870506537689 0  0.322908794869358 0.4070553655912464 0  0.3129967514629171 0.4290790225914929 0  0.3058116365147896 0.4521368671424885 0  0.3014582251803892 0.4758926639489354 0  0.3 0.4999999999999999 0  0.3014582251803892 0.5241073360510646 0  0.3058116365147896 0.5478631328575115 0  0.3129967514629171 0.5709209774085071 0  0.3229087948693581 0.5929446344087538 0  0.3354032268212687 0.6136129493462312 0  0.3502978503657798 0.632624531648159 0  0.367375468351841 0.6497021496342202 0  0.3863870506537689 0.6645967731787313 0  0.4070553655912463 0.677091205130642 0  0.4290790225914929 0.6870032485370829 0  0.4521368671424885 0.6941883634852104 0  0.4758926639489354 0.6985417748196108 0  0.4999999999999999 0.7 0  0.5241073360510646 0.6985417748196108 0  0.5478631328575116 0.6941883634852104 0  0.5709209774085071 0.6870032485370829 0  0.5929446344087537 0.677091205130642 0  0.6136129493462312 0.6645967731787312 0  0.6326245316481591 0.6497021496342202 0  0.6497021496342202 0.632624531648159 0  0.6645967731787312 0.6136129493462312 0  0.677091205130642 0.5929446344087537 0  0.6870032485370829 0.5709209774085071 0  0.6941883634852104 0.5478631328575115 0  0 0.15 0  1 0.15 0  1 0.85 0  0 0.8500000000000001 0  0 0.075 0  1 0.075 0  1 0.925 0  0 0.925 0  0.5 0.8127595604293815 0  0.5069440078039168 0.190422209288238 0  0.25 0.3127595604293815 0  0.756944007803917 0.3095777907117619 0  0.756944007803917 0.6904222092882382 0  0.25 0.6872404395706185 0  0 0.225 0  0.4255768646051012 0.2241073097134061 0  1 0.7749999999999999 0  0.6773391559270888 0.2766774022734219 0  1 0.225 0  0.6755768646051011 0.7241073097134062 0  0 0.7750000000000001 0  0.5818971135297744 0.2287925518358889 0  0.8318971135297746 0.728792551835889 0  0.1659156081861886 0.7301636995921477 0  0.08376842746533225 0.2299656297760495 0  0.4236002201977974 0.7746535834185855 0  0.0840843918138115 0.7698363004078523 0  0.3340843918138113 0.7301636995921477 0  0.3340843918138114 0.2698363004078523 0  0.9159156081861887 0.2301636995921477 0  0.5840843918138116 0.7698363004078522 0  0.1659156081861887 0.2698363004078523 0  0.9162315725346678 0.7700343702239506 0  0.8340843918138114 0.2698363004078523 0  0.75 0.6146645247768686 0  0.5 0.1125158665330878 0  0.75 0.3874841334669124 0  0.2504983345544904 0.6122915843562002 0  0.2504983345544902 0.3877084156437999 0  0.5 0.8879783056303169 0  0.7005361650220154 0.3333055947145943 0  0.70416808765371 0.6599554817221275 0  0.449930214263529 0.1678187287522426 0  0.2247310981387008 0.7415600637745463 0  0.5155081196221678 0.7563797802146907 0  0.2752689018612993 0.2584399362254537 0  0.05605196690611226 0.8246131191226815 0  0.9439480330938878 0.1
[...]
<PointData  Scalars="Temperature"> 
<DataArray  type="Float64"  Name="Temperature"  format="ascii">1.1792359888946831e+02  1.2536092377995372e+02  1.2534853961106394e+02  1.2517760351143239e+02  1.2469990782523762e+02  1.2395802346456236e+02  1.2296775083158722e+02  1.2174150363191363e+02  1.2029246305480322e+02  1.1860117035021868e+02  1.1662095015548536e+02  1.1437277728681208e+02  1.1191840137908052e+02  1.0930638769603563e+02  1.0658272547093557e+02  1.0381023962182805e+02  1.0099563946646701e+02  9.8132266345860671e+01  9.5282035252825580e+01  9.2436478281888583e+01  8.9734815835229696e+01  8.7264170752920705e+01  8.5119583107732026e+01  8.3428264957826215e+01  8.2178587082409351e+01  8.1355667615086091e+01  8.0861723634037645e+01  8.0622632164962269e+01  8.0554712860564436e+01  8.0102471370438479e+01  8.0011110229507054e+01  7.9715188512318406e+01  7.9129731998545225e+01  7.8178865491520710e+01  7.6757108646401363e+01  7.4853162139333534e+01  7.2506184746160798e+01  6.9797976015242696e+01  6.6855479281873954e+01  6.3846506344938298e+01  6.0929753441934274e+01  5.8232439251348723e+01  5.5820077173664792e+01  5.3709412027994127e+01  5.1888752671564177e+01  5.0350686652601986e+01  4.9036071930994872e+01  4.7930872770632774e+01  4.7015873651278675e+01  4.6251773679164423e+01  4.5622687712010453e+01  4.5101975952895828e+01  4.4687167081649122e+01  4.4378477400018340e+01  4.4180194163892601e+01  4.4109437997382322e+01  4.4103710939903351e+01  4.7046149770055791e+01  4.7169204714072258e+01  4.7524183527244254e+01  4.8072802656010822e+01  4.8738906953724992e+01  4.9426164276045988e+01  5.0010694132728901e+01  5.0384223654151889e+01  5.0452594952519142e+01  5.0182870910441764e+01  4.9525130995602574e+01  4.8571650059694235e+01  4.7406349901221112e+01  4.6146553217738308e+01  4.4906650436796767e+01  4.3756163012427244e+01  4.2697355359998390e+01  4.1728691349085288e+01  4.0796378460337294e+01  3.9881284458843304e+01  3.8994369966108238e+01  3.8129332106441680e+01  3.7338863904167638e+01  3.6660036695088273e+01  3.6142301700585605e+01  3.5821644084252064e+01  3.5708993030643519e+01  3.3337045750151788e+01  3.3340694843720414e+01  3.3394065122938038e+01  3.3544004776842200e+01  3.3778245881201379e+01  3.4094622203359791e+01  3.4491755446486920e+01  3.4972681375883703e+01  3.5547490687977493e+01  3.6224592933464585e+01  3.7017218579978696e+01  3.7921554227175172e+01  3.8914886731633651e+01  4.0001491803262986e+01  4.1148185897025186e+01  4.2386787135175574e+01  4.3699357805172660e+01  4.5074731884853186e+01  4.6474306704107541e+01  4.7850198274010687e+01  4.9096720588373309e+01  5.0186135798710396e+01  5.1017462961476369e+01  5.1614244989390279e+01  5.1967040474557152e+01  5.2141567340954502e+01  5.2213396417646422e+01  5.2228840040882162e+01  5.2510869119463486e+01  5.2603577872083285e+01  5.2876087869271586e+01  5.3366787100922544e+01  5.4132022474120937e+01  5.5241784244574411e+01  5.6683944604777970e+01  5.8455320515229090e+01  6.0467349080324148e+01  6.2653271635045421e+01  6.4852796196815049e+01  6.6923696126693571e+01  6.8772085428292186e+01  7.0285374609702174e+01  7.1464963161680885e+01  7.2309631154101254e+01  7.2889296270073316e+01  7.3264964624874892e+01  7.3500780597296213e+01  7.3648341441012036e+01  7.3738813070020740e+01  7.3793071672893234e+01  7.3827557072810137e+01  7.3848748272325977e+01  7.3862375209690725e+01  7.3870057958972339e+01  7.3872858760479218e+01  7.3873010055637039e+01  7.3948887118887924e+01  7.3957084476549340e+01  7.3988052776289692e+01  7.4061744604749094e+01  7.4217208048763197e+01  7.4511264507434518e+01  7.5023974198743574e+01  7.5838683114742736e+01  7.7050613184478124e+01  7.8700855612514871e+01  8.0835629989027055e+01  8.3405197532848547e+01  8.6328204546439665e+01  8.9416732826368573e+01  9.2512200421071526e+01  9.5476471324352687e+01  9.8261792537947414e+01  1.0089779289314160e+02  1.0347861215477575e+02  1.0602829661444773e+02  1.0855203829484773e+02  1.1097388162550038e+02  1.1322083717867811e+02  1.1516825686491759e+02  1.1664509704969899e+02  1.1759173568429732e+02  4.5158640240314277e+01  4.6385972248918890e+01  4.7796577343508460e+01  4.9352921328207557e+01  5.1044885310662444e+01  5.2915194818513072e+01  5.5030415999433046e+01  5.7435056861152574e+01  6.0173898952599266e+01  6.3159929837779991e+01  6.6352875673436756e+01  6.9692322477903829e+01  7.3054605095051542e+01  7.6403267981916088e+01  7.9699990470821021e+01  8.2930603058721701e+01  8.6047180722620780e+01  8.9030502046043097e+01  9.1773711394500410e+01  9.4185122068784523e+01  9.6059277984826466e+01  9.7317620488716244e+01  9.7818272317252024e+01  9.7519158559964595e+01  9.6384771598023221e+01  9.4524252386129746e+01  9.2047563470986873e+01  8.9137042141777556e+01  8.6032538237912803e+01  8.2922256933550912e+01  7.9940246534369834e+01  7.7051841860850388e+01  7.4307042898821905e+01  7.1628835527553321e+01  6.8961123250622180e+01  6.6315053543365735e+01  6.3654016168334223e+01  6.1082974076501621e+01  5.8592258469995642e+01  5.6257035655403463e+01  5.4058267615887281e+01  5.2011547898625736e+01  5.0107031199290141e+01  4.8378910267884145e+01  4.6813406831866573e+01  4.5469307057856341e+01  4.4396745736047784e+01  4.3631016835603546e+01  4.3218025557824411e+01  4.3177471472870792e+01  4.3510235811044140e+01  4.4186048509555953e+01  1.2174234799464260e+02  4.5581531210631937e+01  3.4475743017201026e+01  7.3835245328001818e+01  1.2424925282845747e+02  4.4563456087796915e+01  3.3685052927848375e+01  7.3856855433506340e+01  5.3446563265200929e+01  7.9400417830809573e+01  1.0245111022111949e+02  5.3792956172405155e+01  4.1211293096636190e+01  7.3126128097595227e+01  1.1922008676346148e+02  8.6772318637453878e+01  3.5283349608246446e+01  6.0498653175087235e+01  4.6560369440373847e+01  4.4021694913531270e+01  7.3880512303372029e+01  7.1799937290242298e+01  3.8582312742852089e+01  7.3564293635838794e+01  1.1699455238349898e+02  5.8745297200136108e+01  7.3788631029151759e+01  6.6840908713182984e+01  9.6267925019045109e+01  4.7552220135781340e+01  4.8964617974498857e+01  1.1013882283619060e+02  3.6055269835957027e+01  5.0532907380277045e+01  4.2325987575719914e+01  8.0166410896912936e+01  5.1542500041552827e+01  7.7802758605782472e+01  9.9339214359808921e+01  5.2857411071332393e+01  5.6191960434664651e+01  4.2738014991087070e+01  8.3444611096171627e+01  7.2082731316048410e+01  5.2822494384075121e+01  1.0123526812270840e+02  7.3792840637170897e+01  4.6297193443232629e+01  1.2006480357528372e+02  3.5075781645526348e+01  8.1411416328260160e+01  4.1932579619364923e+01  5.6477159070697226e+01  5.5967064327634823e+01  7.4706780156518988e+01  1.0594416145830715e+02  7.1180620297591361e+01  9.8635001509962876e+01  5.0794152774316885e+01  8.0287836575863793e+01  4.9014845084325145e+01  4.4277709576173962e+01  9.5135771315530945e+01  8.4125094385835027e+01  5.2366143488917615e+01  5.2507834264137571e+01  1.0584047933736636e+02  6.9985489392228402e+01  7.5426390376677745e+01  4.0838696189506564e+01  5.1206184092896557e+01  6.5927527239951843e+01  9.1287456153334560e+01  9.2653924950830330e+01  4.6172586718007807e+01  4.6889141864163406e+01  6.5040783109951249e+01  4.0104640398346781e+01  5.2964761559330299e+01  4.6537757623792544e+01  8.0329453446741965e+01  8.9915333338482000e+01  6.2688996498190477e+01  6.3309894847033021e+01  7.6582367642957465e+01  3.7169719776988387e+01  3.7244973924111761e+01  5.5541412819898845e+01  1.1446647185403071e+02  7.3909377098999869e+01  4.8443464029799266e+01  7.3469637922132833e+01  1.1313127517788278e+02  7.3934066623248810e+01  4.7072501138232369e+01  4.9031552058695269e+01  3.5789911217629800e+01  1.1769758148764613e+02  4.5466608006336457e+01  3.4316216180638861e+01  1.2226879626456045e+02  7.3820192213731488e+01  5.1155285002900094e+01  3.9879294290671844e+01  7.7960079145178398e+01  4.2496891696419624e+01  4.8770077479039216e+01  6.7739304415084575e+01  1.0966710862843654e+02  4.7275868869015504e+01  9.5763775099533220e+01  7.4405700844015911e+01  7.3672209763330471e+01  1.1790423584653405e+02  3.5853654290342099e+01  7.6755077837504942e+01  1.0243958999327636e+02  5.2294100707027255e+01  3.8802014507322546e+01  1.0007984719070852e+02  7.4450342986119963e+01  6.0346114720933741e+01  6.0595018565758608e+01  5.9208848784674963e+01  8.5745651286478690e+01  4.4640677506770828e+01  8.8003520781376082e+01  4.4115415544776702e+01  5.4323567163321037e+01  5.7973193862287324e+01  7.1392245778369698e+01  5.6779985290099503e+01  3.8829232910163235e+01  7.0056336233928477e+01  7.2697872432631215e+01  9.6771251663492322e+01  6.7216314859225221e+01  1.0924110480016429e+02  4.9995312177208362e+01  4.9248485584953819e+01  8.2675817128764592e+01  1.1901188558038760e+02  5.0867277276702644e+01  4.6730925342842738e+01  7.3838068482348319e+01  5.1734228473946430e+01  7.3846991890893293e+01  4.6105209774892629e+01  5.2073179393973653e+01  3.4895130172283601e+01  8.2071529046438698e+01  5.3485273877527689e+01  5.3549029897273520e+01  8.0752760704290793e+01  1.2042103005827175e+02  4.2904757369690600e+01  4.3037238173036961e+01  4.1635137190357341e+01  8.0787901747390492e+01  9.9335254984573581e+01  7.5565609559384256e+01  9.8394131051166170e+01  7.3954598116881968e+01  8.0925634706347680e+01  7.9539579831395628e+01  4.9965441601245736e+01  5.1138813371299243e+01  5.1640276699670224e+01  5.2243581529432170e+01  5.3318936831486226e+01  3.4901876283060410e+01  7.3925250488743259e+01  3.4056028326294040e+01  4.6889759015900211e+01  1.1830412801454969e+02  4.4225574273890025e+01  1.2506726269742737e+02  4.5043085141355995e+01  4.4864353869890614e+01  1.2307531829116481e+02  3.3428491920436450e+01  7.3868587571245271e+01  3.5580379039962757e+01  7.3842767820589074e+01  7.3843582046831997e+01  9.7021744341404485e+01  8.0362115158829866e+01  7.3340443607810798e+01  9.9180684408555251e+01  5.4106414162968505e+01  3.6444505676301908e+01  6.9865826728066324e+01  1.0509779958035033e+02  4.0740083028499996e+01  4.1705000544135409e+01  5.5106789103667836e+01  3.5394718606275305e+01  5.0690797823164736e+01  7.8029624292279763e+01  7.5224175041228804e+01  1.0203217615850602e+02  1.1312294410706431e+02  6.8559392066808314e+01  7.8052918220251101e+01  5.4112584568547469e+01  5.2365310512778514e+01  5.1408612508476978e+01  4.3481481629891590e+01  4.3678420522791420e+01  3.3899855347852963e+01  1.2356892705710561e+02  1.1572186755190101e+02  3.9846446876170397e+01  7.1249377086406042e+01  1.0510923483504736e+02  4.9234193066368647e+01  7.4970528125092372e+01  4.2559086289169755e+01  4.7631090167369237e+01  5.5974561478570450e+01  8.9597004409315730e+01  4.5331123387656937e+01  6.0428069723331852e+01  1.2466491949316955e+02  4.4469925228971867e+01  3.3555639092967077e+01  7.3862048005467798e+01  6.1496864197586632e+01  4.3741752456011220e+01  8.4191498554591149e+01  7.3774559174788550e+01  7.3829363711883062e+01  4.6029768929927201e+01  4.5919668653019031e+01  6.4644362627850157e+01  1.1973333861815794e+02  1.1858392865893865e+02  1.2091210664145305e+02  8.5499204270985473e+01  8.4943733861150037e+01  1.1614377675050775e+02  5.5208510806026048e+01  7.4226920908468202e+01  7.3459882416105430e+01  4.8287037619745838e+01  5.8529526306661282e+01  5.4577194901697908e+01  9.0888465896020918e+01  4.6011634612130784e+01  3.4665466761022387e+01  4.3111953905774577e+01  4.2053548416530141e+01  7.2979078831474098e+01  5.2269947022142340e+01  5.0413016232596888e+01  8.0481743216628786e+01  8.0156527863639440e+01  4.7687254799864171e+01  4.8530779825881240e+01  9.2555810529999221e+01  9.4044821167723811e+01  5.8512192965013185e+01  3.7876092847355785e+01  5.2633115962891189e+01  6.5354741606506551e+01  9.8535591781190746e+01  6.5140191544207894e+01  1.0764151887963349e+02  6.9245832756317384e+01  7.1256659387618015e+01  7.3102436062879690e+01  9.9951050776023578e+01  1.0310909357945476e+02  7.2092648016824910e+01  4.9842646085531712e+01  5.0744686495428297e+01  1.0042855426143497e+02  7.4012329192028929e+01  9.8059626859409306e+01  1.0710697794619368e+02  7.0435781457596136e+01  7.5877978638961991e+01  5.2070660732572577e+01  4.5392091870372269e+01  4.5536620389181643e+01  8.7600384825833771e+01  8.7029648567142360e+01  1.1227520266221850e+02  4.3148908000957647e+01  4.2696686496286077e+01  4.1592808095467674e+01  8.8912645499274021e+01  4.5410186875545421e+01  5.3295024982977779e+01  8.8425256859211615e+01  5.5796973256468995e+01  5.7034410772120772e+01  5.5113449784200128e+01  8.1331374374238251e+01  8.0360676264073859e+01  5.7942566228019444e+01  6.2668238073311578e+01  3.5518868313723708e+01  1.1554637333735596e+02  5.0713622664488902e+01  7.5925095023787009e+01  3.7451212532760700e+01  3.6578060723263505e+01  5.2337509928566384e+01  5.0894449968749861e+01  4.9604651729045642e+01  7.3064678565188373e+01  9.3033148676856570e+01  9.4366095130311365e+01  4.7258092848859278e+01  4.7765937683243102e+01  6.1558269146812208e+01  7.2715863357467924e+01  7.9367802740115948e+01  6.8994692763147938e+01  4.8368683585996592e+01  4.3048578516691038e+01  4.6988189810547148e+01  7.3772084712934586e+01  7.4826828738161112e+01  3.3338892964198990e+01  4.4106400013337563e+01  1.2535571901176415e+02  7.3872964245951096e+01  8.1447837511736353e+01  6.7979584479183714e+01  9.3826440758569319e+01  5.7569078670819273e+01  4.4916207407369846e+01  4.9267493768622948e+01  7.9862071133788973e+01  8.0702229304345323e+01  9.7517002723995134e+01  5.2365213623991494e+01  3.8051585933088660e+01  3.7525076473848614e+01  3.6730603003434744e+01  3.8036187439368504e+01  4.7803161367375218e+01  9.4288984153312271e+01  7.8766171247739010e+01  5.2395490856005118e+01  5.2270043253964211e+01  5.2687512382258184e+01  4.7086699940674833e+01  4.3843919422525559e+01  8.4007073622793627e+01  8.3233696633242459e+01  1.1142284740715536e+02  9.7293905462445707e+01  6.0999771916949619e+01  1.1518596652930005e+02  7.4226969718928217e+01  6.4983697104068497e+01  5.0383883648768112e+01  1.1866633597644928e+02  8.3674593748591008e+01  4.0832964680419273e+01  4.0902253084669852e+01  3.5320260859533157e+01  7.3328512054023690e+01  1.0822135177771905e+02  6.8450344966507700e+01  7.3309749958477056e+01  7.3674547879245850e+01  7.3703521802328751e+01  9.0975886906541788e+01  4.7048713767892714e+01  1.2106652941133437e+02  3.6388962653191989e+01  9.6777373656131005e+01  6.3365174382761083e+01  7.3855423217322794e+01  4.6304481884905236e+01  4.1635458743073038e+01  5.8650174157256423e+01  9.6905196484337381e+01  4.9660085616999702e+01  1.0474198841295321e+02  4.8869505199997157e+01  3.5487431811707935e+01  7.4062241486089647e+01  6.3210808986412388e+01  9.4976202981956490e+01  4.7872954437167891e+01  8.0238995176846828e+01  4.4233147480084895e+01  7.3869683982382369e+01  1.2515208373992525e+02  3.3401371809476586e+01  7.0941764021433897e+01  5.2109788956682678e+01  3.7072984181998613e+01  4.9954812754438535e+01  7.3956519899290953e+01  6.2395301825204420e+01  4.7748531799064843e+01  4.8211453531316650e+01  1.1680978728683995e+02  7.4969968752872319e+01  7.3857839334151890e+01  7.2940422524424889e+01  5.1676280226457322e+01  6.3095809948577433e+01  6.5725338598739242e+01  7.3952891379143054e+01  4.7266191780141554e+01  7.3880956697596190e+01  5.0437313833159280e+01  7.7393852052127528e+01  1.0249774174647345e+02  7.8401113709704774e+01  3.9669073673861163e+01  1.0400821060755840e+02  5.3277286170202039e+01  3.9202208082142000e+01  4.0970725034943221e+01  4.0750920552086747e+01  5.5607468930112859e+01  5.2987196305255928e+01  3.5751142361861838e+01  7.9132145306800908e+01  1.0756472963197405e+02  6.8002319325172920e+01  5.3548236717840005e+01  4.3010096370048380e+01  7.7551718467561955e+01  7.3622572609132433e+01  3.5090186009203030e+01  1.0112318824437867e+02  7.2581273453374195e+01  8.0172371954369339e+01  5.2466141306726946e+01  8.0488871427109601e+01  7.8213118264353426e+01  1.1060743667660824e+02  4.6697166484706784e+01  7.3736835033815780e+01  7.3879245398023357e+01  4.7187472847245452e+01  4.6746599245836656e+01  4.6719884313405267e+01  3.5353182999827069e+01  1.1999358103558944e+02  6.8143715710858544e+01  1.0142176826780948e+02  5.2236887499202901e+01  7.8968673072516708e+01  7.4097436050177819e+01  6.5929707331228030e+01  8.4195196376114751e+01  9.8468003702225758e+01  1.0376848388744051e+02  4.9135821736966037e+01  7.3825169837574322e+01  4.5353775363050644e+01  3.8406742814963998e+01  7.5383029396617559e+01  5.6906398031618224e+01  1.1429947614813932e+02  4.8337548192362028e+01  1.1178758383182848e+02  1.1346056610033386e+02  3.6081038790330624e+01  3.5726502602126025e+01  1.1787419556910797e+02  1.1799800129752542e+02  9.1496019801423287e+01  5.7550491990563387e+01  5.0154126689661098e+01  5.1076870882162964e+01  5.7365958049702819e+01  5.4261116174004691e+01  5.4770362377384252e+01  3.4817866654251503e+01  5.1508486512454226e+01  6.0797873323390533e+01  9.8960368809609264e+01  9.2835271110760686e+01  5.1276386540298745e+01  4.7750416418511946e+01  5.1902747093537926e+01  5.6213807920861221e+01  4.2168796770193453e+01  9.7558418443553691e+01  8.1727119503743182e+01  7.3826560484622732e+01  7.7427249986173010e+01  7.6815191225400540e+01  1.0104661375954737e+02  3.4261894396194194e+01  1.2241755627836307e+02  1.2182010676321099e+02  1.2188285431473162e+02  3.4536623006396901e+01  3.4109163513636858e+01  3.8534662942665875e+01  7.2052254987282652e+01  3.9741643803581155e+01  8.1546042085751679e+01  4.2210259256388646e+01  4.5874557936470630e+01  4.5565024005936671e+01  7.3810435808081181e+01  7.3837044417792427e+01  7.3829407517823498e+01  5.2174157350258078e+01  1.2292763512618839e+02  7.3837267996781605e+01  4.5139625175817315e+01  3.6366859887814343e+01  7.6917768577715805e+01  5.4040775466371265e+01  7.3360199712627491e+01  1.0049968544095137e+02  7.5996392403751130e+01  4.6997357962594641e+01  7.3942513224250490e+01  4.4579347953834898e+01  4.0310561044854481e+01  4.0531198927802222e+01  3.9078225122668208e+01  1.0682277261134882e+02  5.3152724704634771e+01  1.1729299067750109e+02  3.9540612819392138e+01  7.3578886638438945e+01  4.7550306744884764e+01  7.8803692820489843e+01  7.6805755659023347e+01  3.4392801120943403e+01  5.4915838904074192e+01  1.1715914092395110e+02  4.1639014952282039e+01  4.4131121889597658e+01  4.5907327778931212e+01  9.4862391466077071e+01  6.8879079322174363e+01  4.6615650006913469e+01  5.4443458609881219e+01  5.0563015254074799e+01  5.1920979966707328e+01  1.0793021862999248e+02  9.0168969347882268e+01  6.5963302705397666e+01  5.3897059463107581e+01  4.9896884700250936e+01  5.3207077921778712e+01  5.4936264433693118e+01  5.2823871019267358e+01  7.2622012538714188e+01  7.4533524257400686e+01  6.7159331949657002e+01  4.6997533039565454e+01  7.3935897685511520e+01  4.8045644049551676e+01  1.0141216297649470e+02  7.4051089830947063e+01  8.1083538459155463e+01  8.0882764047851794e+01  8.2834727663509653e+01  5.1048499575689384e+01  5.9339367932350370e+01  4.2788402266588307e+01  4.3124899376741617e+01  4.2308042213715289e+01  5.7982075836344386e+01  3.5718693925888040e+01  4.6726868886150349e+01  6.1376011023843461e+01  1.1744034414390461e+02  1.1910217448144728e+02  1.1125802941117259e+02  6.0038307174748162e+01  6.9314720428112494e+01  6.7569470865538577e+01  5.0648485053653211e+01  4.8550512409811525e+01  1.0903609364537151e+02  9.5325649578710326e+01  3.5867270674881567e+01  8.3532928169657410e+01  8.6287668820233705e+01  4.9803794554643787e+01  1.0666693796273169e+02  4.5103315081968709e+01  8.6925892286313484e+01  4.4438009269725768e+01  8.7312613200165089e+01  5.8610295883049091e+01  5.9887790069653803e+01  4.9788133676762008e+01  9.6678653112424527e+01  4.9204540572658992e+01  4.4303217703128809e+01  5.3595212697386927e+01  5.2124090812237320e+01  9.7313089062010391e+01  5.3400352682130872e+01  6.0512177340047806e+01  8.6605834525934739e+01  6.1059058419596177e+01  4.5525485637494867e+01  8.6689333203964992e+01  3.4106880930192254e+01  1.2268354215349632e+02  8.267