<?xml version="1.0"?>
<VTKFile type="UnstructuredGrid"  version="0.1"  >
<UnstructuredGrid>
<Piece  NumberOfPoints="2331" NumberOfCells="4248">
<Points>
<DataArray  type="Float64"  NumberOfComponents="3"  format="ascii">0 0.3 0  0 0 0  0.04999999999999999 0 0  0.0514582251803892 0.02410733605106462 0  0.0558116365147896 0.04786313285751154 0  0.06299675146291706 0.07092097740850717 0  0.07290879486935808 0.09294463440875382 0  0.08540322682126872 0.1136129493462312 0  0.1002978503657798 0.132624531648159 0  0.117375468351841 0.1497021496342203 0  0.1363870506537689 0.1645967731787313 0  0.1570553655912463 0.177091205130642 0  0.1790790225914929 0.187003248537083 0  0.2021368671424885 0.1941883634852104 0  0.2258926639489354 0.1985417748196108 0  0.25 0.2 0  0.2741073360510646 0.1985417748196108 0  0.2978631328575116 0.1941883634852104 0  0.3209209774085071 0.187003248537083 0  0.3429446344087537 0.177091205130642 0  0.3636129493462312 0.1645967731787313 0  0.3826245316481591 0.1497021496342202 0  0.3997021496342202 0.132624531648159 0  0.4145967731787313 0.1136129493462312 0  0.427091205130642 0.09294463440875371 0  0.4370032485370829 0.07092097740850713 0  0.4441883634852104 0.04786313285751155 0  0.4485417748196108 0.02410733605106461 0  0.45 0 0  0.55 0 0  0.5514582251803892 0.02410733605106462 0  0.5558116365147896 0.04786313285751154 0  0.5629967514629171 0.07092097740850717 0  0.5729087948693581 0.09294463440875382 0  0.5854032268212688 0.1136129493462312 0  0.6002978503657798 0.132624531648159 0  0.617375468351841 0.1497021496342203 0  0.6363870506537689 0.1645967731787313 0  0.6570553655912463 0.177091205130642 0  0.6790790225914929 0.187003248537083 0  0.7021368671424885 0.1941883634852104 0  0.7258926639489354 0.1985417748196108 0  0.75 0.2 0  0.7741073360510646 0.1985417748196108 0  0.7978631328575116 0.1941883634852104 0  0.8209209774085071 0.187003248537083 0  0.8429446344087537 0.177091205130642 0  0.8636129493462312 0.1645967731787313 0  0.8826245316481591 0.1497021496342202 0  0.8997021496342202 0.132624531648159 0  0.9145967731787312 0.1136129493462312 0  0.927091205130642 0.09294463440875371 0  0.9370032485370829 0.07092097740850713 0  0.9441883634852104 0.04786313285751155 0  0.9485417748196108 0.02410733605106461 0  0.95 0 0  1 0 0  1 0.3 0  0.9758926639489353 0.3014582251803892 0  0.9521368671424885 0.3058116365147896 0  0.9290790225914928 0.3129967514629171 0  0.9070553655912461 0.3229087948693581 0  0.8863870506537688 0.3354032268212687 0  0.867375468351841 0.3502978503657798 0  0.8502978503657798 0.367375468351841 0  0.8354032268212687 0.3863870506537689 0  0.822908794869358 0.4070553655912464 0  0.8129967514629171 0.4290790225914929 0  0.8058116365147896 0.4521368671424885 0  0.8014582251803892 0.4758926639489354 0  0.8 0.4999999999999999 0  0.8014582251803892 0.5241073360510646 0  0.8058116365147896 0.5478631328575115 0  0.8129967514629171 0.5709209774085071 0  0.8229087948693581 0.5929446344087538 0  0.8354032268212688 0.6136129493462312 0  0.8502978503657798 0.632624531648159 0  0.867375468351841 0.6497021496342202 0  0.8863870506537689 0.6645967731787313 0  0.9070553655912463 0.677091205130642 0  0.9290790225914929 0.6870032485370829 0  0.9521368671424885 0.6941883634852104 0  0.9758926639489354 0.6985417748196108 0  1 0.7 0  1 1 0  0.95 1 0  0.9485417748196108 0.9758926639489353 0  0.9441883634852104 0.9521368671424885 0  0.9370032485370829 0.9290790225914928 0  0.927091205130642 0.9070553655912463 0  0.9145967731787312 0.8863870506537688 0  0.8997021496342201 0.8673754683518409 0  0.882624531648159 0.8502978503657798 0  0.863612949346231 0.8354032268212686 0  0.8429446344087537 0.822908794869358 0  0.8209209774085071 0.8129967514629171 0  0.7978631328575114 0.8058116365147896 0  0.7741073360510646 0.8014582251803892 0  0.75 0.8 0  0.7258926639489353 0.8014582251803892 0  0.7021368671424885 0.8058116365147896 0  0.6790790225914928 0.8129967514629171 0  0.6570553655912461 0.8229087948693581 0  0.6363870506537688 0.8354032268212688 0  0.617375468351841 0.8502978503657798 0  0.6002978503657798 0.867375468351841 0  0.5854032268212687 0.8863870506537689 0  0.572908794869358 0.9070553655912463 0  0.5629967514629171 0.9290790225914929 0  0.5558116365147896 0.9521368671424885 0  0.5514582251803892 0.9758926639489355 0  0.55 0.9999999999999999 0  0.45 0.9999999999999999 0  0.4485417748196108 0.9758926639489353 0  0.4441883634852104 0.9521368671424885 0  0.4370032485370829 0.9290790225914928 0  0.427091205130642 0.9070553655912463 0  0.4145967731787313 0.8863870506537688 0  0.3997021496342201 0.8673754683518409 0  0.382624531648159 0.8502978503657798 0  0.363612949346231 0.8354032268212686 0  0.3429446344087536 0.822908794869358 0  0.3209209774085071 0.8129967514629171 0  0.2978631328575115 0.8058116365147896 0  0.2741073360510646 0.8014582251803892 0  0.25 0.8 0  0.2258926639489353 0.8014582251803892 0  0.2021368671424885 0.8058116365147896 0  0.1790790225914928 0.8129967514629171 0  0.1570553655912462 0.8229087948693581 0  0.1363870506537688 0.8354032268212688 0  0.117375468351841 0.8502978503657798 0  0.1002978503657797 0.867375468351841 0  0.08540322682126869 0.8863870506537689 0  0.07290879486935797 0.9070553655912463 0  0.06299675146291703 0.9290790225914929 0  0.05581163651478957 0.9521368671424885 0  0.0514582251803892 0.9758926639489355 0  0.04999999999999999 0.9999999999999999 0  0 1 0  -0 0.7000000000000001 0  0.0241073360510646 0.6985417748196108 0  0.04786313285751161 0.6941883634852104 0  0.07092097740850711 0.6870032485370829 0  0.09294463440875372 0.677091205130642 0  0.1136129493462312 0.6645967731787312 0  0.1326245316481591 0.6497021496342202 0  0.1497021496342202 0.632624531648159 0  0.1645967731787313 0.6136129493462312 0  0.177091205130642 0.5929446344087537 0  0.187003248537083 0.5709209774085071 0  0.1941883634852104 0.5478631328575115 0  0.1985417748196108 0.5241073360510646 0  0.2 0.5 0  0.1985417748196108 0.4758926639489353 0  0.1941883634852104 0.4521368671424885 0  0.1870032485370829 0.4290790225914928 0  0.177091205130642 0.4070553655912463 0  0.1645967731787313 0.3863870506537688 0  0.1497021496342202 0.3673754683518409 0  0.132624531648159 0.3502978503657798 0  0.113612949346231 0.3354032268212686 0  0.09294463440875361 0.322908794869358 0  0.07092097740850711 0.3129967514629171 0  0.04786313285751148 0.3058116365147896 0  0.02410733605106464 0.3014582251803892 0  0.6985417748196108 0.5241073360510646 0  0.7 0.5 0  0.6985417748196108 0.4758926639489353 0  0.6941883634852104 0.4521368671424885 0  0.6870032485370829 0.4290790225914928 0  0.677091205130642 0.4070553655912463 0  0.6645967731787312 0.3863870506537688 0  0.6497021496342201 0.3673754683518409 0  0.632624531648159 0.3502978503657798 0  0.613612949346231 0.3354032268212686 0  0.5929446344087537 0.322908794869358 0  0.5709209774085071 0.3129967514629171 0  0.5478631328575114 0.3058116365147896 0  0.5241073360510646 0.3014582251803892 0  0.4999999999999999 0.3 0  0.4758926639489353 0.3014582251803892 0  0.4521368671424885 0.3058116365147896 0  0.4290790225914928 0.3129967514629171 0  0.4070553655912462 0.3229087948693581 0  0.3863870506537688 0.3354032268212687 0  0.367375468351841 0.3502978503657798 0  0.3502978503657798 0.367375468351841 0  0.3354032268212687 0.3863870506537689 0  0.322908794869358 0.4070553655912464 0  0.3129967514629171 0.4290790225914929 0  0.3058116365147896 0.4521368671424885 0  0.3014582251803892 0.4758926639489354 0  0.3 0.4999999999999999 0  0.3014582251803892 0.5241073360510646 0  0.3058116365147896 0.5478631328575115 0  0.3129967514629171 0.5709209774085071 0  0.3229087948693581 0.5929446344087538 0  0.3354032268212687 0.6136129493462312 0  0.3502978503657798 0.632624531648159 0  0.367375468351841 0.6497021496342202 0  0.3863870506537689 0.6645967731787313 0  0.4070553655912463 0.677091205130642 0  0.4290790225914929 0.6870032485370829 0  0.4521368671424885 0.6941883634852104 0  0.4758926639489354 0.6985417748196108 0  0.4999999999999999 0.7 0  0.5241073360510646 0.6985417748196108 0  0.5478631328575116 0.6941883634852104 0  0.5709209774085071 0.6870032485370829 0  0.5929446344087537 0.677091205130642 0  0.6136129493462312 0.6645967731787312 0  0.6326245316481591 0.6497021496342202 0  0.6497021496342202 0.632624531648159 0  0.6645967731787312 0.6136129493462312 0  0.677091205130642 0.5929446344087537 0  0.6870032485370829 0.5709209774085071 0  0.6941883634852104 0.5478631328575115 0  0 0.15 0  1 0.15 0  1 0.85 0  0 0.8500000000000001 0  0 0.075 0  1 0.075 0  1 0.925 0  0 0.925 0  0.5 0.8127595604293815 0  0.5069440078039168 0.190422209288238 0  0.25 0.3127595604293815 0  0.756944007803917 0.3095777907117619 0  0.756944007803917 0.6904222092882382 0  0.25 0.6872404395706185 0  0 0.225 0  0.4255768646051012 0.2241073097134061 0  1 0.7749999999999999 0  0.6773391559270888 0.2766774022734219 0  1 0.225 0  0.6755768646051011 0.7241073097134062 0  0 0.7750000000000001 0  0.5818971135297744 0.2287925518358889 0  0.8318971135297746 0.728792551835889 0  0.1659156081861886 0.7301636995921477 0  0.08376842746533225 0.2299656297760495 0  0.4236002201977974 0.7746535834185855 0  0.0840843918138115 0.7698363004078523 0  0.3340843918138113 0.7301636995921477 0  0.3340843918138114 0.2698363004078523 0  0.9159156081861887 0.2301636995921477 0  0.5840843918138116 0.7698363004078522 0  0.1659156081861887 0.2698363004078523 0  0.9162315725346678 0.7700343702239506 0  0.8340843918138114 0.2698363004078523 0  0.75 0.6146645247768686 0  0.5 0.1125158665330878 0  0.75 0.3874841334669124 0  0.2504983345544904 0.6122915843562002 0  0.2504983345544902 0.3877084156437999 0  0.5 0.8879783056303169 0  0.7005361650220154 0.3333055947145943 0  0.70416808765371 0.6599554817221275 0  0.449930214263529 0.1678187287522426 0  0.2247310981387008 0.7415600637745463 0  0.5155081196221678 0.7563797802146907 0  0.2752689018612993 0.2584399362254537 0  0.05605196690611226 0.8246131191226815 0  0.9439480330938878 0.1
[...]
<PointData  Scalars="Temperature"> 
<DataArray  type="Float64"  Name="Temperature"  format="ascii">1.0747384757149275e+02  1.1845993013418291e+02  1.1843681477748785e+02  1.1819132821775608e+02  1.1750387309091654e+02  1.1643269353444451e+02  1.1499792688992099e+02  1.1321548771380598e+02  1.1110729826471017e+02  1.0865000230810145e+02  1.0578178176974127e+02  1.0253704478434976e+02  9.9007188333103755e+01  9.5262926798113043e+01  9.1375910943870664e+01  8.7444916967719863e+01  8.3495772491950078e+01  7.9539166274570817e+01  7.5675017782294802e+01  7.1888609620429690e+01  6.8351026373522402e+01  6.5150665767930036e+01  6.2378981953731163e+01  6.0176783102000186e+01  5.8517831967991981e+01  5.7386840625894671e+01  5.6672389584433354e+01  5.6303842179164924e+01  5.6193388659874699e+01  5.5405769476892388e+01  5.5318352805474198e+01  5.5028390688151639e+01  5.4443990813989458e+01  5.3494178479312154e+01  5.2078716708115138e+01  5.0208523085025348e+01  4.7953849695969346e+01  4.5403453747801535e+01  4.2696849841479199e+01  3.9993089209792849e+01  3.7428127857777476e+01  3.5102282529901458e+01  3.3060455740621691e+01  3.1303560471778756e+01  2.9812209493811505e+01  2.8575433196562948e+01  2.7541311450995707e+01  2.6694426744636530e+01  2.6014801846682332e+01  2.5466904296323712e+01  2.5032311234261190e+01  2.4685885573968029e+01  2.4419047075376838e+01  2.4224955554736585e+01  2.4102158670798378e+01  2.4058669463199873e+01  2.4053224955814507e+01  2.5915950177110084e+01  2.6012968302181921e+01  2.6293969451696945e+01  2.6734602545582504e+01  2.7283677606903037e+01  2.7876180006463553e+01  2.8424175463988753e+01  2.8855329919071160e+01  2.9098086712877311e+01  2.9129031387119344e+01  2.8914745968766329e+01  2.8519570598618863e+01  2.7998413338122553e+01  2.7425532617578330e+01  2.6868330153889385e+01  2.6355220752945602e+01  2.5883912900074499e+01  2.5448867630652217e+01  2.5020924352579840e+01  2.4591517238077465e+01  2.4171000622526478e+01  2.3757981672365343e+01  2.3381740919409630e+01  2.3060074532667212e+01  2.2816182432455015e+01  2.2665508774141774e+01  2.2612574222853269e+01  2.1642065824648952e+01  2.1643807694077591e+01  2.1665151695250930e+01  2.1725361996361560e+01  2.1820419120732936e+01  2.1950931090328091e+01  2.2119139261642992e+01  2.2329158436800000e+01  2.2588279169488853e+01  2.2904139345498471e+01  2.3286975410603073e+01  2.3740740337425720e+01  2.4259431335726315e+01  2.4851347794126358e+01  2.5503787557553629e+01  2.6237319914469001e+01  2.7038658725862422e+01  2.7899553431739037e+01  2.8784777591383751e+01  2.9655807414061300e+01  3.0434198943338462e+01  3.1091897726739735e+01  3.1554450466601388e+01  3.1843386394735937e+01  3.1959318986438763e+01  3.1961844809620835e+01  3.1929954877111143e+01  3.1911357416230995e+01  3.2179363975754171e+01  3.2295783335617728e+01  3.2626665275827072e+01  3.3190272168242046e+01  3.4025240076335727e+01  3.5180849430193881e+01  3.6641651102708366e+01  3.8406284802443949e+01  4.0393694054784646e+01  4.2553320957355389e+01  4.4732364163895127e+01  4.6795209290597803e+01  4.8639056459466836e+01  5.0141922146789092e+01  5.1284097168985056e+01  5.2042684993461442e+01  5.2477948556566695e+01  5.2637066766129600e+01  5.2577952672161693e+01  5.2368792768237654e+01  5.2046664358208758e+01  5.1648611435019212e+01  5.1222129692608071e+01  5.0811872863663950e+01  5.0461479042111655e+01  5.0227072767990620e+01  5.0133703378018019e+01  5.0133267620058028e+01  5.3829599974024234e+01  5.3868476113119897e+01  5.3989136987707056e+01  5.4195395408212455e+01  5.4509583784521503e+01  5.4968005696706989e+01  5.5638146095558248e+01  5.6598685345427384e+01  5.7939646480147424e+01  5.9703261271735805e+01  6.1952939007511695e+01  6.4645000542443015e+01  6.7716007539024787e+01  7.0991951797805655e+01  7.4336917239393173e+01  7.7635125802739097e+01  8.0866527545589662e+01  8.4086548946036288e+01  8.7399500784496695e+01  9.0796418855413066e+01  9.4252089889615334e+01  9.7627007294280872e+01  1.0079115311903041e+02  1.0354995974730265e+02  1.0565108939595136e+02  1.0700093251681876e+02  2.7086243597475939e+01  2.7655715690184724e+01  2.8369325569114682e+01  2.9230576451523984e+01  3.0257577018427387e+01  3.1507007937019250e+01  3.3044984715372046e+01  3.4912447343870717e+01  3.7162889242484368e+01  3.9731231676114497e+01  4.2603452774188952e+01  4.5745126210030620e+01  4.9062792852496209e+01  5.2531571864680977e+01  5.6107274520066220e+01  5.9775688069701317e+01  6.3456546765158379e+01  6.7104310701047524e+01  7.0548557091259497e+01  7.3668592413491766e+01  7.6185074664134177e+01  7.7991511823616534e+01  7.8899378753617441e+01  7.8868296502866301e+01  7.7854112591869381e+01  7.6002366792677449e+01  7.3448679540570211e+01  7.0412757675957479e+01  6.7157204647046484e+01  6.3880004626586114e+01  6.0725447689035590e+01  5.7659404017082593e+01  5.4749324294578827e+01  5.1929223822619193e+01  4.9161621321688550e+01  4.6470751383440408e+01  4.3825563043983806e+01  4.1333814602303285e+01  3.8991431393917907e+01  3.6869600553036612e+01  3.4948326277664037e+01  3.3240408861571751e+01  3.1722622271385802e+01  3.0407850214226119e+01  2.9256843048155883e+01  2.8286445685470486e+01  2.7507796868445055e+01  2.6926369325798522e+01  2.6553519250413398e+01  2.6392638092312989e+01  2.6439036653607758e+01  2.6676508116419299e+01  1.1322092545241469e+02  2.4968327045063472e+01  2.2100769382054217e+01  5.1910752578490431e+01  1.1686382906701876e+02  2.4334414966187225e+01  2.1780931846702778e+01  5.0708430145194868e+01  3.3929395788932098e+01  5.5438123798149967e+01  8.5437905150573513e+01  3.1581156959424771e+01  2.5428130239473337e+01  5.3466347400904155e+01  1.0946323229815140e+02  6.4405160500510618e+01  2.2433222472683372e+01  3.7202580491120884e+01  2.5592093836712628e+01  2.7260369927027920e+01  5.3153083768706331e+01  4.7543753676412884e+01  2.4030816524788730e+01  5.3669234508471462e+01  1.0626463393369092e+02  3.8900217464487440e+01  5.3279780775632027e+01  4.6869449604677584e+01  7.6713338878699858e+01  2.6357458169752260e+01  3.0630083877791868e+01  9.6427420620071800e+01  2.2797664544523283e+01  2.8740578694864926e+01  2.5850891183395952e+01  5.5938151791582051e+01  3.0275912460097011e+01  5.8580056678686979e+01  8.1637556088218034e+01  3.2911024444574451e+01  3.3747316846099395e+01  2.6322643731364042e+01  6.0228894905863953e+01  5.2125104080925709e+01  3.3741042168864844e+01  8.3709334574068166e+01  5.2409284842058206e+01  2.5462673665585147e+01  1.1076480757133653e+02  2.2356577389179186e+01  5.7949445062623774e+01  2.5942629825856745e+01  3.3669199870397662e+01  3.6071335070383483e+01  5.5238398956488055e+01  9.0535396370557976e+01  5.1428663025794016e+01  7.9889840269937253e+01  3.1709644588747974e+01  5.5840542107368755e+01  2.8892475281599420e+01  2.6642337174946633e+01  7.6966656991550721e+01  6.5271804867296055e+01  3.2037167518586337e+01  3.2292549497914202e+01  9.0270680104286754e+01  5.0027686959999734e+01  5.0967824439780316e+01  2.5104253508106154e+01  2.9436663873499906e+01  4.1939981987399229e+01  7.0048842437113066e+01  7.2038450394671429e+01  2.8657746558074027e+01  2.9252307082171246e+01  4.1301016205944819e+01  2.4864321595157886e+01  3.0715740672928060e+01  2.7666106444210904e+01  5.5796947112494536e+01  7.1376996527679353e+01  4.2664636012710069e+01  4.3408882175959363e+01  5.2520099089949312e+01  2.3344492786590365e+01  2.3351707461199041e+01  3.5982422727787082e+01  1.0258755297410067e+02  5.3569695356748980e+01  2.7038324979660892e+01  5.3102455849298096e+01  1.0073202763842686e+02  5.3980811332557899e+01  2.5959218178346486e+01  2.7522116898917464e+01  2.2658683074061464e+01  1.0721202345244362e+02  2.4911331608859690e+01  2.2039835345823086e+01  1.1398927388506590e+02  5.1653120332449880e+01  2.9684560276088373e+01  2.4674787819488387e+01  5.3452283822462761e+01  2.6249034525993931e+01  3.0319316582907707e+01  4.7874180809381023e+01  9.5779443774011042e+01  2.6185293345773317e+01  7.5852658561850276e+01  5.4828205033753001e+01  5.2688962068465614e+01  1.0762690845572726e+02  2.2721286201055211e+01  5.7548839830564624e+01  8.5858761629044110e+01  3.2703190056249774e+01  2.4099295366614747e+01  8.2162310861172188e+01  5.4933250907654447e+01  3.6958247578696088e+01  3.7432307892960068e+01  3.9208250349200910e+01  6.3102018513485511e+01  2.7687970492950633e+01  6.6048679693352454e+01  2.7308322574655168e+01  3.4328455236429761e+01  3.8333652981178119e+01  4.7320579467033852e+01  3.4048767366300567e+01  2.4196060385008675e+01  4.5712947324186509e+01  5.2562480821560584e+01  7.7591581216473543e+01  4.7146078911705644e+01  9.5151891528998306e+01  2.8344508378193609e+01  3.0996202713228239e+01  5.9349869898649047e+01  1.0918592598137425e+02  2.8988753706778503e+01  2.5738110326969853e+01  5.3018973363910021e+01  3.2648761962692355e+01  5.2552467817407290e+01  2.5299667619536379e+01  3.0046557769263654e+01  2.2288844238163797e+01  5.8408544891196662e+01  3.1556734093156997e+01  3.1843528865884167e+01  5.6850263961368583e+01  1.1126675911645992e+02  2.6017505106712456e+01  2.6238999866936265e+01  2.5579227399679475e+01  6.1828177956289636e+01  8.2007278603561076e+01  5.6101389804078849e+01  7.9889669628087105e+01  5.3885632896491742e+01  5.6807851299739490e+01  5.4996023708652118e+01  2.9241985603718788e+01  3.0221727495768388e+01  3.1997560429459849e+01  3.2216713723984611e+01  3.3208852350080818e+01  2.2275478245810497e+01  5.3626332597826902e+01  2.1930342395439123e+01  2.5807970455464286e+01  1.0806461336721500e+02  2.4127379945988942e+01  1.1803924403061410e+02  2.4631340279403062e+01  2.4525693505095902e+01  1.1516646568695083e+02  2.1678452788563455e+01  5.0292439214760634e+01  2.2557850941436673e+01  5.1276054548724872e+01  5.1036740806565341e+01  7.8748104569439874e+01  6.1233299291766194e+01  5.3634492604041846e+01  8.0718892389418642e+01  3.4306762336979268e+01  2.2964147925535055e+01  4.9788933598828713e+01  8.9239065976088412e+01  2.5255618066343665e+01  2.5472348214480981e+01  3.5783047032293695e+01  2.2487102878089882e+01  3.1998812728952753e+01  5.4216054432056524e+01  5.5809447541141481e+01  8.5040093004031974e+01  1.0069408569181867e+02  4.4500613398494039e+01  5.3755512570824017e+01  3.1722596721094682e+01  3.0539458751849953e+01  3.2694075887334947e+01  2.6884515772042317e+01  2.6988410532590645e+01  2.1868425007402415e+01  1.1587783667852142e+02  1.0445597138506392e+02  2.4596458537310994e+01  5.1448705937115413e+01  8.9253412024955509e+01  2.7677194763722291e+01  5.0677740806578299e+01  2.6089651424511313e+01  2.6395250803609347e+01  3.3709749310501678e+01  6.8028158238800856e+01  2.8153862273249622e+01  4.0597874467833321e+01  1.1745876108251531e+02  2.4279245159153078e+01  2.1729521844156967e+01  5.0497439918335218e+01  4.1434598402268037e+01  2.6470002120487599e+01  6.1217067314079593e+01  5.2015737452906748e+01  5.2247526695040825e+01  2.5300299931470853e+01  2.5190085550021948e+01  4.4556858716119294e+01  1.1029244559045578e+02  1.0859175018525883e+02  1.1200051851436314e+02  6.2852063561877856e+01  6.2128668672039787e+01  1.0496187502857126e+02  3.5504484701402404e+01  5.4534685329675739e+01  5.2771535367528976e+01  2.6955485739405312e+01  3.5608321236927964e+01  3.2031349341053371e+01  6.9811687780557094e+01  2.8663817853238182e+01  2.2183297307376534e+01  2.6523289031889480e+01  2.5914792587561195e+01  4.8458768139582034e+01  3.2025094721892152e+01  2.8778937404243926e+01  5.6069615669095604e+01  5.5552113788447848e+01  2.8169629407313547e+01  2.8727119995595899e+01  7.4073844635934151e+01  7.5951124925135701e+01  3.5434934392237295e+01  2.3644454011810215e+01  3.2358282872209649e+01  4.1357954596843769e+01  7.9916239363107422e+01  4.5268371502032522e+01  9.2874698878780862e+01  4.9362640370827457e+01  5.1152668128761306e+01  5.3236067486753278e+01  8.1994978289299340e+01  8.6350177630996285e+01  5.2262455590545990e+01  3.1146708203788954e+01  3.1495807359291106e+01  8.2506757440444474e+01  5.4352751268067394e+01  7.9102179980256992e+01  9.2229653411462735e+01  5.0674430915312094e+01  5.6616477638871388e+01  3.2729307163380660e+01  2.7164744835527152e+01  2.7169182631353280e+01  6.8849507952676134e+01  6.8397158034919556e+01  9.9460428486080332e+01  2.6695618923336838e+01  2.6421298214040494e+01  2.5704602703492935e+01  6.6981157413105706e+01  2.8125557909905545e+01  3.3984472353475155e+01  6.6431929126843286e+01  3.5789309307691852e+01  3.7199138517873237e+01  3.2764490072668679e+01  5.7919267994583954e+01  5.6654389510939474e+01  3.4869910390928254e+01  3.9031187266108823e+01  2.2552366375013431e+01  1.0422257362163724e+02  2.9187152413507746e+01  5.1325107806421023e+01  2.3496931032958571e+01  2.3066451766002899e+01  3.0365684536577465e+01  2.9085070895867052e+01  2.7981910336567175e+01  5.2723185177139882e+01  7.2215335897823891e+01  7.4062961771965561e+01  2.9310272454412281e+01  2.9719793063370986e+01  4.1754642202425210e+01  4.8317959542319599e+01  5.5109224481914765e+01  4.4803172837555813e+01  2.6991319112580552e+01  2.6147333964142177e+01  2.5949473106030368e+01  5.2810617138541609e+01  5.0778005698183613e+01  2.1642936475810018e+01  2.4055792908561322e+01  1.1845021847421613e+02  5.0132478195448719e+01  5.7799878196691026e+01  4.4076387290240987e+01  7.3473373540705580e+01  3.7555996167792919e+01  2.7841865803644307e+01  2.7714296693242940e+01  5.5250428495133157e+01  5.6436988998224528e+01  7.9600850740869618e+01  3.0204041408474051e+01  2.3746367615315858e+01  2.3503336297525628e+01  2.3116123481738217e+01  2.3774115380514115e+01  2.9956078898838225e+01  7.4297483334182175e+01  5.9732093960047038e+01  3.2097621656851437e+01  3.1945784067475316e+01  3.2592030979749239e+01  2.9326102317420776e+01  2.6412615318454080e+01  6.5235311478287699e+01  6.4248853811134381e+01  9.8258025170976524e+01  7.8023023233300535e+01  4.1063398424129005e+01  1.0365049683300492e+02  5.4691011698130716e+01  4.4954987356410037e+01  2.9630172097481797e+01  1.0864017908876890e+02  6.0498235208158121e+01  2.5055884974650716e+01  2.5198079424661852e+01  2.2472591481517345e+01  5.3718941760631836e+01  9.3682536035664839e+01  4.8472803653360273e+01  5.3167043816379127e+01  5.3578023377788227e+01  5.3367329751078685e+01  7.2617445516548983e+01  2.7961805921898375e+01  1.1223504216525302e+02  2.2964987733387840e+01  7.8985575378770378e+01  3.9872624620501540e+01  5.2867161484778599e+01  2.5437286983255788e+01  2.5500805427159026e+01  3.5859901453779663e+01  7.7383371093702607e+01  3.0827354380557622e+01  8.8970939703984698e+01  2.8711132587332461e+01  2.2520881209748424e+01  5.4202611107905888e+01  3.9590781921606279e+01  7.6565620237484481e+01  2.6621228983332156e+01  5.5897785866173869e+01  2.4133419242534625e+01  5.0245688595024887e+01  1.1815818863529299e+02  2.1667852746482584e+01  5.0967405948078195e+01  3.0512652406195951e+01  2.3259278758283120e+01  2.8256714239604129e+01  5.4144348887133049e+01  3.8721315652853605e+01  2.6476128766602528e+01  3.0168270898522763e+01  1.0595666267642837e+02  5.5557269083415413e+01  5.3657835806503279e+01  5.3306890218965790e+01  2.9671079152421040e+01  4.3131524741769525e+01  4.5797866718136348e+01  5.3833491453402480e+01  2.6094362082272553e+01  5.3259824005852167e+01  2.9332500527098919e+01  5.3269408528631310e+01  8.5550907202842737e+01  5.9110657592467277e+01  2.4659345871110933e+01  8.7774030627993014e+01  3.4247767854839751e+01  2.4371762683910344e+01  2.5366504288658547e+01  2.5203419416025429e+01  3.3002292586105021e+01  3.2783215200303857e+01  2.2649413811364376e+01  5.4663744163819167e+01  9.2765287154707835e+01  4.7892345479700708e+01  3.3647713490791517e+01  2.6341768321480910e+01  5.8249430887211616e+01  5.2986310566053390e+01  2.2355747767082654e+01  8.3488873795043503e+01  5.2907652372094738e+01  5.5527843348570059e+01  3.2134616049367821e+01  5.6073661938370158e+01  5.3590040075776955e+01  9.7121204010902062e+01  2.5774751344318823e+01  5.2393868291064813e+01  5.3544149950889647e+01  2.6064713028426404e+01  2.5713899329152706e+01  2.5707749384810942e+01  2.2496182922084255e+01  1.1063725721443161e+02  4.3889106080216365e+01  8.4680512949561361e+01  3.2377761679756418e+01  5.5159398994035456e+01  4.9899214925549444e+01  4.2028285840934728e+01  6.1248579465301624e+01  8.0307117719174528e+01  8.7317047247341335e+01  2.7615372246634848e+01  5.1344467566757224e+01  2.4847628740922790e+01  2.3986913586019828e+01  5.6015847450018562e+01  3.7420525188989004e+01  1.0232659277644576e+02  2.6950373131034276e+01  9.8791487996366513e+01  1.0121868281919055e+02  2.2789851044751568e+01  2.2623762235742412e+01  1.0742933822086356e+02  1.0768937383752767e+02  7.0430551203112330e+01  3.7606443570279588e+01  2.9676861438662428e+01  2.9816259502834420e+01  3.7675573386575905e+01  3.4919549259160782e+01  3.2222612096922688e+01  2.2242948647469515e+01  3.2054705832282508e+01  4.0794585632231609e+01  8.0492782053548254e+01  7.4509735917936823e+01  2.9617697106878666e+01  2.8264233637733902e+01  3.2000252602765983e+01  3.6695190532705602e+01  2.5916669406036945e+01  7.9077653386671358e+01  5.7914453950143098e+01  5.2654267727868188e+01  5.8324211075006239e+01  5.7561163555170076e+01  8.3887092268855980e+01  2.2013710382091737e+01  1.1420916816842073e+02  1.1333551598729510e+02  1.1342375558365679e+02  2.2136338051833139e+01  2.1955871513385745e+01  2.3955957135585130e+01  5.1878079753654170e+01  2.4637374536298893e+01  6.2554902950759121e+01  2.5676048479494469e+01  2.5179234826664501e+01  2.4963871956981645e+01  5.2046791126689634e+01  5.1590925602498203e+01  5.1835093018386715e+01  3.2044263578578459e+01  1.1494399915023251e+02  5.1360665514761031e+01  2.4695696621521588e+01  2.2935815896609952e+01  5.2437796414175814e+01  3.3960571636675709e+01  4.9336538432590061e+01  8.2948134795624654e+01  5.6627032440042711e+01  2.5881401698210912e+01  5.3774821769236830e+01  2.6823549687694396e+01  2.4866164391681675e+01  2.5037577501837937e+01  2.4261265319491905e+01  9.1687749823733284e+01  3.3512422686317414e+01  1.0675072851163162e+02  2.4471857689368051e+01  5.2600726204931966e+01  2.6403661685350496e+01  5.9710303331337073e+01  5.2506114281624306e+01  2.2068320141777619e+01  3.4998113135354345e+01  1.0640284898277940e+02  2.5787446171410476e+01  2.4069779470764484e+01  2.8520455101201019e+01  7.4953526832275500e+01  4.8830632832481641e+01  2.7654463663241035e+01  3.4917709110958143e+01  3.1780130129788716e+01  3.0806811895534590e+01  9.3320605358047260e+01  7.1550714369964268e+01  4.5848940403859551e+01  3.2183571681140130e+01  2.8292795747260126e+01  3.1024681285444856e+01  3.2831128623880574e+01  3.3031120415961688e+01  5.2352481412824737e+01  5.4999991784020146e+01  4.7311544355647847e+01  2.5889388962514108e+01  5.3723338312051339e+01  2.6727674620703233e+01  8.4023744231287125e+01  5.4503768165074483e+01  5.7087406107502844e+01  5.6911486062771004e+01  5.9424765874515209e+01  2.9133158125675919e+01  3.9659204128800511e+01  2.6406663530365027e+01  2.6669615196035156e+01  2.6154871714299123e+01  3.5240079165666074e+01  2.2650873917866658e+01  2.5776604208277096e+01  3.8029870091435662e+01  1.0693639644715348e+02  1.0936430953317563e+02  9.8043991571385789e+01  3.6661817476279133e+01  4.9474875897506763e+01  4.7659390536366679e+01  2.9303457116734343e+01  3.0113094582522884e+01  9.4912980472584010e+01  7.5200952583380356e+01  2.2734157808909217e+01  6.0446555318218856e+01  6.3777416346441392e+01  2.8148211402546437e+01  9.1461821393103534e+01  2.8020541143552741e+01  6.4632895817019886e+01  2.7543888124805694e+01  6.5195271924350223e+01  3.8688927838671049e+01  3.9835996478698569e+01  3.1000858503408082e+01  7.7538612945044818e+01  3.1016586049439560e+01  2.7418909932632793e+01  3.1764792163821191e+01  3.0795323934073053e+01  7.7992181005140239e+01  3.3385939853470049e+01  3.7151129338735934e+01  6.7872526582146179e+01  3.7888527544264214e+01  2.7193073166850077e+01  6.4238327926273357e+01  2.1951936468973400e+01  1.1459602044554526e+02  5.919