<?xml version="1.0"?>
<VTKFile type="UnstructuredGrid"  version="0.1"  >
<UnstructuredGrid>
<Piece  NumberOfPoints="2331" NumberOfCells="4248">
<Points>
<DataArray  type="Float64"  NumberOfComponents="3"  format="ascii">0 0.3 0  0 0 0  0.04999999999999999 0 0  0.0514582251803892 0.02410733605106462 0  0.0558116365147896 0.04786313285751154 0  0.06299675146291706 0.07092097740850717 0  0.07290879486935808 0.09294463440875382 0  0.08540322682126872 0.1136129493462312 0  0.1002978503657798 0.132624531648159 0  0.117375468351841 0.1497021496342203 0  0.1363870506537689 0.1645967731787313 0  0.1570553655912463 0.177091205130642 0  0.1790790225914929 0.187003248537083 0  0.2021368671424885 0.1941883634852104 0  0.2258926639489354 0.1985417748196108 0  0.25 0.2 0  0.2741073360510646 0.1985417748196108 0  0.2978631328575116 0.1941883634852104 0  0.3209209774085071 0.187003248537083 0  0.3429446344087537 0.177091205130642 0  0.3636129493462312 0.1645967731787313 0  0.3826245316481591 0.1497021496342202 0  0.3997021496342202 0.132624531648159 0  0.4145967731787313 0.1136129493462312 0  0.427091205130642 0.09294463440875371 0  0.4370032485370829 0.07092097740850713 0  0.4441883634852104 0.04786313285751155 0  0.4485417748196108 0.02410733605106461 0  0.45 0 0  0.55 0 0  0.5514582251803892 0.02410733605106462 0  0.5558116365147896 0.04786313285751154 0  0.5629967514629171 0.07092097740850717 0  0.5729087948693581 0.09294463440875382 0  0.5854032268212688 0.1136129493462312 0  0.6002978503657798 0.132624531648159 0  0.617375468351841 0.1497021496342203 0  0.6363870506537689 0.1645967731787313 0  0.6570553655912463 0.177091205130642 0  0.6790790225914929 0.187003248537083 0  0.7021368671424885 0.1941883634852104 0  0.7258926639489354 0.1985417748196108 0  0.75 0.2 0  0.7741073360510646 0.1985417748196108 0  0.7978631328575116 0.1941883634852104 0  0.8209209774085071 0.187003248537083 0  0.8429446344087537 0.177091205130642 0  0.8636129493462312 0.1645967731787313 0  0.8826245316481591 0.1497021496342202 0  0.8997021496342202 0.132624531648159 0  0.9145967731787312 0.1136129493462312 0  0.927091205130642 0.09294463440875371 0  0.9370032485370829 0.07092097740850713 0  0.9441883634852104 0.04786313285751155 0  0.9485417748196108 0.02410733605106461 0  0.95 0 0  1 0 0  1 0.3 0  0.9758926639489353 0.3014582251803892 0  0.9521368671424885 0.3058116365147896 0  0.9290790225914928 0.3129967514629171 0  0.9070553655912461 0.3229087948693581 0  0.8863870506537688 0.3354032268212687 0  0.867375468351841 0.3502978503657798 0  0.8502978503657798 0.367375468351841 0  0.8354032268212687 0.3863870506537689 0  0.822908794869358 0.4070553655912464 0  0.8129967514629171 0.4290790225914929 0  0.8058116365147896 0.4521368671424885 0  0.8014582251803892 0.4758926639489354 0  0.8 0.4999999999999999 0  0.8014582251803892 0.5241073360510646 0  0.8058116365147896 0.5478631328575115 0  0.8129967514629171 0.5709209774085071 0  0.8229087948693581 0.5929446344087538 0  0.8354032268212688 0.6136129493462312 0  0.8502978503657798 0.632624531648159 0  0.867375468351841 0.6497021496342202 0  0.8863870506537689 0.6645967731787313 0  0.9070553655912463 0.677091205130642 0  0.9290790225914929 0.6870032485370829 0  0.9521368671424885 0.6941883634852104 0  0.9758926639489354 0.6985417748196108 0  1 0.7 0  1 1 0  0.95 1 0  0.9485417748196108 0.9758926639489353 0  0.9441883634852104 0.9521368671424885 0  0.9370032485370829 0.9290790225914928 0  0.927091205130642 0.9070553655912463 0  0.9145967731787312 0.8863870506537688 0  0.8997021496342201 0.8673754683518409 0  0.882624531648159 0.8502978503657798 0  0.863612949346231 0.8354032268212686 0  0.8429446344087537 0.822908794869358 0  0.8209209774085071 0.8129967514629171 0  0.7978631328575114 0.8058116365147896 0  0.7741073360510646 0.8014582251803892 0  0.75 0.8 0  0.7258926639489353 0.8014582251803892 0  0.7021368671424885 0.8058116365147896 0  0.6790790225914928 0.8129967514629171 0  0.6570553655912461 0.8229087948693581 0  0.6363870506537688 0.8354032268212688 0  0.617375468351841 0.8502978503657798 0  0.6002978503657798 0.867375468351841 0  0.5854032268212687 0.8863870506537689 0  0.572908794869358 0.9070553655912463 0  0.5629967514629171 0.9290790225914929 0  0.5558116365147896 0.9521368671424885 0  0.5514582251803892 0.9758926639489355 0  0.55 0.9999999999999999 0  0.45 0.9999999999999999 0  0.4485417748196108 0.9758926639489353 0  0.4441883634852104 0.9521368671424885 0  0.4370032485370829 0.9290790225914928 0  0.427091205130642 0.9070553655912463 0  0.4145967731787313 0.8863870506537688 0  0.3997021496342201 0.8673754683518409 0  0.382624531648159 0.8502978503657798 0  0.363612949346231 0.8354032268212686 0  0.3429446344087536 0.822908794869358 0  0.3209209774085071 0.8129967514629171 0  0.2978631328575115 0.8058116365147896 0  0.2741073360510646 0.8014582251803892 0  0.25 0.8 0  0.2258926639489353 0.8014582251803892 0  0.2021368671424885 0.8058116365147896 0  0.1790790225914928 0.8129967514629171 0  0.1570553655912462 0.8229087948693581 0  0.1363870506537688 0.8354032268212688 0  0.117375468351841 0.8502978503657798 0  0.1002978503657797 0.867375468351841 0  0.08540322682126869 0.8863870506537689 0  0.07290879486935797 0.9070553655912463 0  0.06299675146291703 0.9290790225914929 0  0.05581163651478957 0.9521368671424885 0  0.0514582251803892 0.9758926639489355 0  0.04999999999999999 0.9999999999999999 0  0 1 0  -0 0.7000000000000001 0  0.0241073360510646 0.6985417748196108 0  0.04786313285751161 0.6941883634852104 0  0.07092097740850711 0.6870032485370829 0  0.09294463440875372 0.677091205130642 0  0.1136129493462312 0.6645967731787312 0  0.1326245316481591 0.6497021496342202 0  0.1497021496342202 0.632624531648159 0  0.1645967731787313 0.6136129493462312 0  0.177091205130642 0.5929446344087537 0  0.187003248537083 0.5709209774085071 0  0.1941883634852104 0.5478631328575115 0  0.1985417748196108 0.5241073360510646 0  0.2 0.5 0  0.1985417748196108 0.4758926639489353 0  0.1941883634852104 0.4521368671424885 0  0.1870032485370829 0.4290790225914928 0  0.177091205130642 0.4070553655912463 0  0.1645967731787313 0.3863870506537688 0  0.1497021496342202 0.3673754683518409 0  0.132624531648159 0.3502978503657798 0  0.113612949346231 0.3354032268212686 0  0.09294463440875361 0.322908794869358 0  0.07092097740850711 0.3129967514629171 0  0.04786313285751148 0.3058116365147896 0  0.02410733605106464 0.3014582251803892 0  0.6985417748196108 0.5241073360510646 0  0.7 0.5 0  0.6985417748196108 0.4758926639489353 0  0.6941883634852104 0.4521368671424885 0  0.6870032485370829 0.4290790225914928 0  0.677091205130642 0.4070553655912463 0  0.6645967731787312 0.3863870506537688 0  0.6497021496342201 0.3673754683518409 0  0.632624531648159 0.3502978503657798 0  0.613612949346231 0.3354032268212686 0  0.5929446344087537 0.322908794869358 0  0.5709209774085071 0.3129967514629171 0  0.5478631328575114 0.3058116365147896 0  0.5241073360510646 0.3014582251803892 0  0.4999999999999999 0.3 0  0.4758926639489353 0.3014582251803892 0  0.4521368671424885 0.3058116365147896 0  0.4290790225914928 0.3129967514629171 0  0.4070553655912462 0.3229087948693581 0  0.3863870506537688 0.3354032268212687 0  0.367375468351841 0.3502978503657798 0  0.3502978503657798 0.367375468351841 0  0.3354032268212687 0.3863870506537689 0  0.322908794869358 0.4070553655912464 0  0.3129967514629171 0.4290790225914929 0  0.3058116365147896 0.4521368671424885 0  0.3014582251803892 0.4758926639489354 0  0.3 0.4999999999999999 0  0.3014582251803892 0.5241073360510646 0  0.3058116365147896 0.5478631328575115 0  0.3129967514629171 0.5709209774085071 0  0.3229087948693581 0.5929446344087538 0  0.3354032268212687 0.6136129493462312 0  0.3502978503657798 0.632624531648159 0  0.367375468351841 0.6497021496342202 0  0.3863870506537689 0.6645967731787313 0  0.4070553655912463 0.677091205130642 0  0.4290790225914929 0.6870032485370829 0  0.4521368671424885 0.6941883634852104 0  0.4758926639489354 0.6985417748196108 0  0.4999999999999999 0.7 0  0.5241073360510646 0.6985417748196108 0  0.5478631328575116 0.6941883634852104 0  0.5709209774085071 0.6870032485370829 0  0.5929446344087537 0.677091205130642 0  0.6136129493462312 0.6645967731787312 0  0.6326245316481591 0.6497021496342202 0  0.6497021496342202 0.632624531648159 0  0.6645967731787312 0.6136129493462312 0  0.677091205130642 0.5929446344087537 0  0.6870032485370829 0.5709209774085071 0  0.6941883634852104 0.5478631328575115 0  0 0.15 0  1 0.15 0  1 0.85 0  0 0.8500000000000001 0  0 0.075 0  1 0.075 0  1 0.925 0  0 0.925 0  0.5 0.8127595604293815 0  0.5069440078039168 0.190422209288238 0  0.25 0.3127595604293815 0  0.756944007803917 0.3095777907117619 0  0.756944007803917 0.6904222092882382 0  0.25 0.6872404395706185 0  0 0.225 0  0.4255768646051012 0.2241073097134061 0  1 0.7749999999999999 0  0.6773391559270888 0.2766774022734219 0  1 0.225 0  0.6755768646051011 0.7241073097134062 0  0 0.7750000000000001 0  0.5818971135297744 0.2287925518358889 0  0.8318971135297746 0.728792551835889 0  0.1659156081861886 0.7301636995921477 0  0.08376842746533225 0.2299656297760495 0  0.4236002201977974 0.7746535834185855 0  0.0840843918138115 0.7698363004078523 0  0.3340843918138113 0.7301636995921477 0  0.3340843918138114 0.2698363004078523 0  0.9159156081861887 0.2301636995921477 0  0.5840843918138116 0.7698363004078522 0  0.1659156081861887 0.2698363004078523 0  0.9162315725346678 0.7700343702239506 0  0.8340843918138114 0.2698363004078523 0  0.75 0.6146645247768686 0  0.5 0.1125158665330878 0  0.75 0.3874841334669124 0  0.2504983345544904 0.6122915843562002 0  0.2504983345544902 0.3877084156437999 0  0.5 0.8879783056303169 0  0.7005361650220154 0.3333055947145943 0  0.70416808765371 0.6599554817221275 0  0.449930214263529 0.1678187287522426 0  0.2247310981387008 0.7415600637745463 0  0.5155081196221678 0.7563797802146907 0  0.2752689018612993 0.2584399362254537 0  0.05605196690611226 0.8246131191226815 0  0.9439480330938878 0.1
[...]
<PointData  Scalars="Temperature"> 
<DataArray  type="Float64"  Name="Temperature"  format="ascii">2.4909286929790699e+01  2.5675870073013950e+01  2.5669656975556808e+01  2.5657605549612121e+01  2.5622760259513637e+01  2.5565729254729312e+01  2.5485282175625333e+01  2.5379166425121038e+01  2.5248914332784402e+01  2.5093835557795288e+01  2.4911621761828464e+01  2.4705041995465969e+01  2.4479355031883522e+01  2.4238208072918617e+01  2.3984624344920707e+01  2.3726691926550838e+01  2.3469031422990362e+01  2.3215441983753458e+01  2.2976419903977913e+01  2.2750384915149173e+01  2.2545992706598213e+01  2.2364995430914824e+01  2.2203658111510311e+01  2.2070381507221665e+01  2.1961686297547590e+01  2.1882774362455400e+01  2.1824894720012498e+01  2.1793020859092273e+01  2.1781987763545789e+01  2.1514947214240046e+01  2.1502176785031985e+01  2.1463338795455382e+01  2.1397114454178233e+01  2.1309567979838725e+01  2.1200730666244230e+01  2.1079062057635312e+01  2.0954502668852459e+01  2.0828341099479992e+01  2.0707047099883091e+01  2.0594697852712599e+01  2.0493582778793762e+01  2.0405282977756361e+01  2.0330204943701325e+01  2.0267433153485392e+01  2.0215691475395570e+01  2.0174366511224768e+01  2.0141298446138901e+01  2.0115616879330027e+01  2.0095888433917775e+01  2.0081122218131199e+01  2.0070401006011910e+01  2.0062879722222942e+01  2.0057930879940560e+01  2.0054752217653142e+01  2.0052977574802053e+01  2.0052403127681952e+01  2.0050489710209657e+01  2.0054335954598923e+01  2.0058024555047030e+01  2.0067974871051156e+01  2.0082711174220684e+01  2.0100690808201470e+01  2.0120730800846211e+01  2.0140909681496520e+01  2.0160619859793805e+01  2.0177581287357299e+01  2.0191212877648354e+01  2.0198731253692007e+01  2.0201048213492118e+01  2.0197349078347326e+01  2.0188640300272247e+01  2.0177070613820394e+01  2.0161892497548596e+01  2.0144368915662689e+01  2.0125944424366924e+01  2.0107016420604932e+01  2.0088579410424405e+01  2.0072128439000444e+01  2.0057320533279615e+01  2.0045024576117971e+01  2.0035065909917314e+01  2.0027644430694707e+01  2.0022914829769988e+01  2.0021148396523284e+01  2.0008260898814477e+01  2.0008548099661173e+01  2.0008917322931264e+01  2.0009927664094803e+01  2.0011540767208800e+01  2.0013831784323806e+01  2.0017085523249701e+01  2.0021566757503308e+01  2.0027535652347897e+01  2.0035383640613695e+01  2.0045598710804921e+01  2.0058600187491297e+01  2.0074482956627079e+01  2.0093579558008440e+01  2.0115331989062874e+01  2.0139939375149297e+01  2.0165884863054810e+01  2.0192917804749300e+01  2.0218129838083424e+01  2.0241077235732575e+01  2.0259300427794098e+01  2.0272299269015207e+01  2.0277533040141439e+01  2.0276989056240801e+01  2.0270267807578126e+01  2.0259709210198757e+01  2.0250549996785885e+01  2.0246648652994391e+01  2.0288576287532539e+01  2.0299802471620346e+01  2.0328082353042351e+01  2.0370519292023818e+01  2.0425565341327829e+01  2.0493760055458921e+01  2.0573515199421333e+01  2.0665001865107875e+01  2.0765438933151934e+01  2.0874830882191574e+01  2.0987855566133462e+01  2.1100872974087306e+01  2.1208372676775650e+01  2.1304031162516495e+01  2.1383076826345803e+01  2.1439113788473417e+01  2.1469948092284390e+01  2.1474535249150918e+01  2.1451531591128607e+01  2.1407174172591379e+01  2.1342546476485978e+01  2.1262370644657942e+01  2.1173765102175185e+01  2.1084336260368492e+01  2.1002695677201128e+01  2.0943186419762327e+01  2.0917511769689852e+01  2.0918696134552349e+01  2.1918401321024550e+01  2.1919899782213804e+01  2.1926853593662017e+01  2.1938890465438512e+01  2.1956734633720171e+01  2.1981100761782841e+01  2.2013669044574200e+01  2.2058173151222878e+01  2.2114553548036952e+01  2.2182514612246106e+01  2.2270383527508489e+01  2.2375846687706368e+01  2.2501816954071828e+01  2.2645077477470032e+01  2.2805807402035647e+01  2.2983658895380408e+01  2.3178654425355038e+01  2.3390491373174942e+01  2.3616865726947736e+01  2.3850017367322170e+01  2.4081703487094810e+01  2.4301691135133371e+01  2.4502167214342837e+01  2.4672456308005451e+01  2.4800251859934569e+01  2.4881481717997762e+01  2.0229288843783632e+01  2.0240824085986898e+01  2.0258365370890903e+01  2.0282484780503655e+01  2.0314735467299201e+01  2.0356907371425084e+01  2.0411052022092033e+01  2.0479124083179478e+01  2.0563891463885728e+01  2.0664857872618075e+01  2.0785269496761114e+01  2.0926237573525579e+01  2.1086666717820641e+01  2.1265948410434497e+01  2.1460193355805448e+01  2.1664753841633225e+01  2.1871551422185355e+01  2.2075761988681659e+01  2.2262631559785035e+01  2.2432172412462833e+01  2.2569152302188424e+01  2.2672036053692317e+01  2.2730904882404868e+01  2.2751958189762483e+01  2.2725193580029380e+01  2.2662464724253311e+01  2.2563258663552066e+01  2.2437531430230191e+01  2.2292860956203025e+01  2.2133570589319348e+01  2.1968005912123669e+01  2.1794072984215667e+01  2.1621872413938704e+01  2.1452942081568732e+01  2.1290905226046714e+01  2.1139777232941459e+01  2.0998754822729286e+01  2.0872183268510479e+01  2.0758227196972864e+01  2.0658484728822032e+01  2.0571227572537722e+01  2.0496306885615677e+01  2.0432429262552628e+01  2.0379845860804433e+01  2.0336237303440733e+01  2.0300763065546690e+01  2.0272638217912569e+01  2.0251203291778594e+01  2.0235761160762948e+01  2.0226234080014699e+01  2.0221839918104553e+01  2.0223064885620321e+01  2.5394794109527492e+01  2.0054898197298840e+01  2.0014036232801661e+01  2.1359258450315597e+01  2.5599124942456331e+01  2.0052376134211091e+01  2.0010165434858497e+01  2.1068765388205389e+01  2.0451323104722039e+01  2.1501671130044890e+01  2.3426974998435139e+01  2.0286490419353960e+01  2.0134588629233193e+01  2.1631367667822914e+01  2.5113139118282806e+01  2.2103684270798581e+01  2.0018218964388431e+01  2.0517299034001244e+01  2.0054477113278885e+01  2.0213280140528571e+01  2.1696716727551152e+01  2.0984015933635202e+01  2.0068807591868229e+01  2.1710941305199704e+01  2.4914683705539886e+01  2.0716319800259690e+01  2.1678869278387978e+01  2.1146050568410214e+01  2.2836349114930485e+01  2.0085937851406722e+01  2.0329432028350602e+01  2.4265498541887933e+01  2.0029771403923728e+01  2.0165562494259557e+01  2.0167902277091549e+01  2.1614466348963134e+01  2.0267367111263177e+01  2.1966434362768943e+01  2.3101863279384048e+01  2.0353601111168732e+01  2.0403907517841446e+01  2.0200921734853438e+01  2.1943704360320009e+01  2.1505556221005726e+01  2.0487124312752428e+01  2.3392734030455575e+01  2.1463021945345851e+01  2.0068737867767783e+01  2.5231333744071609e+01  2.0019016620208472e+01  2.1611230748752334e+01  2.0142638782696068e+01  2.0358446394326261e+01  2.0551606436560125e+01  2.1872579744042092e+01  2.3826832901435932e+01  2.1442698074932345e+01  2.2922720520482400e+01  2.0329184576975237e+01  2.1638563080388217e+01  2.0240471426210728e+01  2.0194165253511539e+01  2.2835073676886108e+01  2.2298879084061785e+01  2.0266501658032347e+01  2.0294781406000673e+01  2.3851099748370729e+01  2.1342042946003939e+01  2.1163315698360766e+01  2.0117310779526104e+01  2.0189264943233606e+01  2.0699127510839819e+01  2.2353187551662629e+01  2.2651989846806220e+01  2.0241826888253328e+01  2.0307353462612372e+01  2.0707591586508880e+01  2.0100473519069531e+01  2.0243632297120612e+01  2.0216560909070726e+01  2.1646549422184428e+01  2.2571909375424916e+01  2.0898625309138506e+01  2.0963647541434792e+01  2.1278414343876197e+01  2.0046482983101885e+01  2.0045198588847580e+01  2.0578237791937504e+01  2.4644069023735305e+01  2.1808422806984254e+01  2.0098896437923852e+01  2.1598480005670719e+01  2.4576042876920145e+01  2.1823632219719251e+01  2.0062330284443618e+01  2.0131220395440849e+01  2.0023841748448614e+01  2.4935292136316395e+01  2.0061178080850901e+01  2.0014403079277709e+01  2.5435995916312994e+01  2.1283420501209232e+01  2.0211729847935320e+01  2.0095944940953437e+01  2.1338736230327193e+01  2.0174998406778251e+01  2.0277815262769369e+01  2.1216422514787727e+01  2.4193799653563264e+01  2.0093461143602195e+01  2.2632166196491330e+01  2.1904625139780915e+01  2.1502079367330172e+01  2.5026327767654269e+01  2.0029742934444680e+01  2.2014136461428755e+01  2.3477667315244947e+01  2.0360559451897558e+01  2.0070654903583705e+01  2.3103119328741389e+01  2.1701817341785187e+01  2.0484419632467702e+01  2.0556201478634204e+01  2.0713167145041762e+01  2.1906871863233004e+01  2.0261150607946306e+01  2.2340257590907189e+01  2.0187461703516590e+01  2.0445543598064518e+01  2.0711969802471142e+01  2.0992848506839024e+01  2.0389765745839846e+01  2.0073554911125385e+01  2.0861657643926186e+01  2.1526566011612687e+01  2.3029796676982162e+01  2.1139420788548573e+01  2.4211395761104221e+01  2.0142228615562225e+01  2.0383376502831688e+01  2.1778570998742559e+01  2.5107650079734604e+01  2.0182799457654390e+01  2.0065424388594057e+01  2.1638012630162002e+01  2.0404338061317279e+01  2.1526088970497465e+01  2.0054988398204951e+01  2.0215876687837639e+01  2.0019576403384399e+01  2.1882409669617939e+01  2.0305990993440659e+01  2.0349066052463773e+01  2.1665058473131865e+01  2.5260420986426926e+01  2.0161720328573036e+01  2.0205204795667967e+01  2.0149454842219068e+01  2.2199695792046672e+01  2.3211589111607271e+01  2.1728299380738967e+01  2.2857827852418158e+01  2.1860614725019243e+01  2.1773453223109279e+01  2.1489444971552047e+01  2.0221894676150793e+01  2.0295808923809524e+01  2.0301431323114365e+01  2.0294034687210008e+01  2.0370725744520783e+01  2.0016164037163378e+01  2.1846637394707777e+01  2.0012032396848312e+01  2.0053778482116339e+01  2.4976913892423003e+01  2.0050999266450638e+01  2.5656246777494619e+01  2.0053892065835086e+01  2.0056381818399558e+01  2.5509746238349894e+01  2.0008797777681174e+01  2.0963276246405364e+01  2.0020151712289476e+01  2.1205110729762378e+01  2.1142056774028791e+01  2.2843512764970832e+01  2.2047377784029351e+01  2.1676952032979255e+01  2.3091178564158163e+01  2.0453904161127916e+01  2.0032804604801854e+01  2.1299353233579893e+01  2.3821607355821875e+01  2.0110414742699845e+01  2.0133348880930669e+01  2.0596170636562068e+01  2.0020355439434312e+01  2.0403223748233600e+01  2.1365764476195999e+01  2.1827398877904297e+01  2.3380850526807780e+01  2.4548309203828769e+01  2.0842135272611198e+01  2.1376189651490254e+01  2.0284091015466103e+01  2.0247888906460346e+01  2.0459864503020039e+01  2.0217031771342469e+01  2.0242703231562331e+01  2.0011697501493881e+01  2.5543922866862751e+01  2.4813606343702631e+01  2.0090648398610639e+01  2.1455977572071017e+01  2.3740400241240451e+01  2.0127055365537935e+01  2.1160723736982899e+01  2.0192267152842376e+01  2.0078286499545825e+01  2.0424274131112128e+01  2.2376985037135857e+01  2.0258804353386360e+01  2.0816143934101490e+01  2.5625526169478388e+01  2.0053702105486582e+01  2.0009705163174416e+01  2.1014321733347902e+01  2.0823189217168977e+01  2.0207822058192303e+01  2.1849194017909277e+01  2.1351455973903022e+01  2.1439878854983437e+01  2.0072785347603347e+01  2.0058134073005384e+01  2.0988394676250653e+01  2.5200316547378389e+01  2.5081084342335313e+01  2.5313872603387821e+01  2.2182223639379156e+01  2.2018301602116690e+01  2.4777256039254102e+01  2.0533901620052930e+01  2.1922450223805889e+01  2.1507694645485557e+01  2.0119404443504973e+01  2.0468287910189996e+01  2.0292923849268323e+01  2.2590769267859447e+01  2.0304205213537628e+01  2.0016162419000057e+01  2.0226152279972961e+01  2.0166979294949741e+01  2.0994767085867768e+01  2.0264731510592163e+01  2.0157641573823415e+01  2.1718875571718627e+01  2.1571133181359816e+01  2.0211910812337308e+01  2.0258049162738416e+01  2.2638884661929183e+01  2.2856508141183223e+01  2.0434184838545637e+01  2.0054041371816531e+01  2.0303227123922344e+01  2.0656832366086135e+01  2.3117362012811942e+01  2.1071200175355099e+01  2.4008256185876728e+01  2.1306797186646765e+01  2.1392025130346983e+01  2.1637925309160973e+01  2.3337821965477822e+01  2.3545951936766642e+01  2.1529369886004908e+01  2.0326212716518448e+01  2.0293641949221062e+01  2.3163867168740680e+01  2.1798851458524105e+01  2.2785373516615888e+01  2.3947038828663835e+01  2.1383330198838642e+01  2.2016393532026594e+01  2.0383580379458298e+01  2.0218992765664147e+01  2.0192058531500894e+01  2.2402645890495087e+01  2.2487839122866205e+01  2.4430184338664453e+01  2.0175898042274724e+01  2.0151607453737032e+01  2.0142034824163115e+01  2.2108925230793741e+01  2.0207427594558073e+01  2.0475757743219884e+01  2.2156397165068196e+01  2.0529140574238273e+01  2.0620626727836008e+01  2.0347647071223651e+01  2.1574233591729094e+01  2.1562202331526937e+01  2.0399180373036977e+01  2.0578125387333980e+01  2.0023441467721586e+01  2.4809544061537284e+01  2.0179290752956803e+01  2.1164840950286528e+01  2.0051372498851485e+01  2.0039109736215643e+01  2.0231804932613862e+01  2.0174959669028144e+01  2.0152430978525889e+01  2.1521439002176741e+01  2.2401375241581750e+01  2.2592400518834335e+01  2.0241631409227484e+01  2.0276678111350350e+01  2.0886945558931991e+01  2.1008527142041959e+01  2.1505406541225977e+01  2.0836675948056996e+01  2.0107139026108246e+01  2.0184133151511322e+01  2.0078732900122059e+01  2.1558821853320755e+01  2.1173972498843412e+01  2.0008394742732175e+01  2.0051392597781685e+01  2.5673263783772860e+01  2.0917869870481226e+01  2.1706184333495113e+01  2.0843163348430323e+01  2.2653626021347382e+01  2.0623676610042200e+01  2.0221699647922168e+01  2.0121438190260204e+01  2.1514501961776880e+01  2.1766244522688197e+01  2.2981881879576491e+01  2.0227346569876680e+01  2.0058348437701994e+01  2.0050787917080889e+01  2.0038799306080399e+01  2.0059791782226572e+01  2.0352469103467786e+01  2.2857978860404732e+01  2.2143816220251491e+01  2.0273681686401563e+01  2.0252262135882852e+01  2.0323636754103688e+01  2.0284993431387896e+01  2.0171312747955145e+01  2.2366342402779175e+01  2.2184365713144064e+01  2.4371897202368540e+01  2.2845456317362991e+01  2.0825349274599670e+01  2.4738231087617812e+01  2.1766282261758423e+01  2.1025691884649053e+01  2.0255777760973569e+01  2.5046988578675066e+01  2.2053763557666990e+01  2.0110939143469512e+01  2.0123986962157314e+01  2.0022938949278835e+01  2.1588952034392225e+01  2.4089348593882573e+01  2.1239207181717941e+01  2.1618726386584594e+01  2.1712610769228672e+01  2.1678176480201504e+01  2.2693338741133424e+01  2.0240301509955625e+01  2.5326126370408137e+01  2.0035424458672644e+01  2.3013961855366158e+01  2.0662159573987431e+01  2.1609669344207099e+01  2.0058345956177440e+01  2.0141854069613974e+01  2.0506723682341573e+01  2.2674273621403074e+01  2.0277929581593934e+01  2.3714121135275455e+01  2.0214678310923176e+01  2.0019962786384557e+01  2.1904949733997494e+01  2.0619537597303939e+01  2.2726491275067076e+01  2.0101545528857855e+01  2.1628602324091499e+01  2.0052240128042957e+01  2.0949455148562706e+01  2.5659323095073166e+01  2.0008797919912340e+01  2.1405834391230684e+01  2.0259987746484363e+01  2.0041534804739893e+01  2.0152811785428987e+01  2.1817099795564790e+01  2.0547735290584974e+01  2.0075892789133182e+01  2.0332458350884203e+01  2.4868488582368890e+01  2.1954492649815069e+01  2.1773977778305774e+01  2.1542242099625916e+01  2.0202721846815582e+01  2.0936675422507847e+01  2.1092389364105664e+01  2.1892594586046421e+01  2.0062564287850734e+01  2.1721804032017182e+01  2.0204742214260609e+01  2.1334201029822502e+01  2.3567662720642058e+01  2.1895105294967266e+01  2.0088346661870109e+01  2.3612377371583094e+01  2.0532303581647277e+01  2.0081110012981210e+01  2.0119837363496345e+01  2.0118480347349404e+01  2.0338772985358897e+01  2.0339225446527710e+01  2.0024766065154335e+01  2.1456576426275745e+01  2.4066243023353547e+01  2.1171013434286696e+01  2.0406506839121942e+01  2.0219045629041950e+01  2.1886792970427297e+01  2.1575216497381405e+01  2.0017712837881067e+01  2.3297063016361800e+01  2.1558072036079917e+01  2.1557217758265963e+01  2.0281409720563591e+01  2.1738643862149406e+01  2.1332015069721617e+01  2.4353459000573537e+01  2.0086255396291509e+01  2.1437832516717442e+01  2.1774026618436764e+01  2.0071431874996101e+01  2.0054212612252918e+01  2.0057909769601064e+01  2.0024819148583838e+01  2.5215511739268926e+01  2.0764485539816885e+01  2.3415762951743091e+01  2.0317262430056726e+01  2.1441260958281863e+01  2.1120852108495374e+01  2.0722445274032687e+01  2.1761912883696965e+01  2.2940278052434248e+01  2.3657557547415362e+01  2.0113277461043900e+01  2.1205826752368861e+01  2.0064411930704079e+01  2.0066188183919277e+01  2.1903336777266755e+01  2.0678628053266692e+01  2.4606101615891621e+01  2.0091398203519550e+01  2.4435900667942587e+01  2.4617879568464033e+01  2.0027158696760015e+01  2.0021970447722264e+01  2.4924886188010962e+01  2.4993422182668208e+01  2.2475361341083413e+01  2.0632483972981188e+01  2.0290082795023554e+01  2.0232282004704480e+01  2.0665032490327246e+01  2.0535695688227772e+01  2.0301196935941963e+01  2.0016216420810252e+01  2.0321809385994818e+01  2.0799144192121894e+01  2.2928179727565549e+01  2.2727059906454045e+01  2.0200779749704488e+01  2.0231752854521652e+01  2.0281754305871193e+01  2.0627890714674884e+01  2.0174245641217489e+01  2.2802067860638761e+01  2.1888578894824455e+01  2.1540926649922685e+01  2.2105762366608712e+01  2.1953411242707055e+01  2.3299744180411651e+01  2.0013010406252604e+01  2.5455107068641823e+01  2.5400532864527008e+01  2.5395827102296515e+01  2.0016964454970825e+01  2.0013559217268327e+01  2.0064556605329443e+01  2.1441417979119446e+01  2.0093068597848831e+01  2.2172122413315037e+01  2.0138380692865400e+01  2.0064729718361175e+01  2.0057281974931033e+01  2.1378399868614473e+01  2.1280487825329129e+01  2.1336384327076821e+01  2.0271723584268855e+01  2.5487047277454412e+01  2.1221630866211331e+01  2.0056165903526832e+01  2.0032841020883321e+01  2.1262323004725165e+01  2.0421285986199802e+01  2.1098914113523715e+01  2.3190579227884005e+01  2.1841923872929520e+01  2.0053984245754069e+01  2.1897640430297528e+01  2.0219490437185161e+01  2.0105354847714420e+01  2.0113671080119378e+01  2.0077762860595001e+01  2.3974579589465680e+01  2.0413489192849205e+01  2.4972772391414381e+01  2.0086346942537656e+01  2.1463571528167215e+01  2.0104957014210736e+01  2.2084315265672512e+01  2.1280217511787271e+01  2.0014022914876396e+01  2.0488580577778443e+01  2.4859531199429785e+01  2.0127134805575984e+01  2.0050512273176171e+01  2.0256145046780087e+01  2.2819905417381282e+01  2.1245469727028844e+01  2.0198482173308797e+01  2.0514612367722350e+01  2.0371249007778566e+01  2.0328350629750787e+01  2.4029284463822552e+01  2.2522631585006128e+01  2.1052241208567668e+01  2.0375729866220887e+01  2.0136948493288102e+01  2.0257939414299326e+01  2.0378784917149503e+01  2.0370398697756514e+01  2.1476480263707341e+01  2.1962737561249416e+01  2.1185583493610039e+01  2.0056430975346284e+01  2.1873941732847250e+01  2.0092845901392039e+01  2.3287154014286845e+01  2.1700801374138809e+01  2.1764486583483109e+01  2.1705958087978278e+01  2.1930141987027284e+01  2.0191563125029607e+01  2.0785361872907799e+01  2.0194569241303803e+01  2.0187820809176987e+01  2.0159946579351352e+01  2.0469247123341301e+01  2.0026950443216869e+01  2.0079638889946676e+01  2.0565288868706599e+01  2.4973418964710731e+01  2.5139228166976462e+01  2.4403255718990462e+01  2.0466167973334901e+01  2.1313767263765985e+01  2.1200653590028846e+01  2.0191687694252742e+01  2.0256696290754725e+01  2.4128258610787906e+01  2.2534098571799468e+01  2.0030843730655942e+01  2.1756139641979978e+01  2.2000830200250945e+01  2.0140693200954988e+01  2.3918785663831017e+01  2.0285545842097282e+01  2.2189969162535427e+01  2.0239570361612639e+01  2.2340738494490811e+01  2.0694710928597807e+01  2.0739549263783950e+01  2.0300510754282556e+01  2.3075876011015286e+01  2.0399364460598107e+01  2.0181420094125475e+01  2.0329688225769537e+01  2.0303950700070018e+01  2.2774777232101204e+01  2.0384694232791446e+01  2.0502289445763694e+01  2.2408351519190798e+01  2.0586800725399691e+01  2.0205647523953679e+01  2.1936473129178655e+01  2.0012612852623406e+01  2.5476084717513949e+01  2.198