<?xml version="1.0"?>
<VTKFile type="UnstructuredGrid"  version="0.1"  >
<UnstructuredGrid>
<Piece  NumberOfPoints="2331" NumberOfCells="4248">
<Points>
<DataArray  type="Float64"  NumberOfComponents="3"  format="ascii">0 0.3 0  0 0 0  0.04999999999999999 0 0  0.0514582251803892 0.02410733605106462 0  0.0558116365147896 0.04786313285751154 0  0.06299675146291706 0.07092097740850717 0  0.07290879486935808 0.09294463440875382 0  0.08540322682126872 0.1136129493462312 0  0.1002978503657798 0.132624531648159 0  0.117375468351841 0.1497021496342203 0  0.1363870506537689 0.1645967731787313 0  0.1570553655912463 0.177091205130642 0  0.1790790225914929 0.187003248537083 0  0.2021368671424885 0.1941883634852104 0  0.2258926639489354 0.1985417748196108 0  0.25 0.2 0  0.2741073360510646 0.1985417748196108 0  0.2978631328575116 0.1941883634852104 0  0.3209209774085071 0.187003248537083 0  0.3429446344087537 0.177091205130642 0  0.3636129493462312 0.1645967731787313 0  0.3826245316481591 0.1497021496342202 0  0.3997021496342202 0.132624531648159 0  0.4145967731787313 0.1136129493462312 0  0.427091205130642 0.09294463440875371 0  0.4370032485370829 0.07092097740850713 0  0.4441883634852104 0.04786313285751155 0  0.4485417748196108 0.02410733605106461 0  0.45 0 0  0.55 0 0  0.5514582251803892 0.02410733605106462 0  0.5558116365147896 0.04786313285751154 0  0.5629967514629171 0.07092097740850717 0  0.5729087948693581 0.09294463440875382 0  0.5854032268212688 0.1136129493462312 0  0.6002978503657798 0.132624531648159 0  0.617375468351841 0.1497021496342203 0  0.6363870506537689 0.1645967731787313 0  0.6570553655912463 0.177091205130642 0  0.6790790225914929 0.187003248537083 0  0.7021368671424885 0.1941883634852104 0  0.7258926639489354 0.1985417748196108 0  0.75 0.2 0  0.7741073360510646 0.1985417748196108 0  0.7978631328575116 0.1941883634852104 0  0.8209209774085071 0.187003248537083 0  0.8429446344087537 0.177091205130642 0  0.8636129493462312 0.1645967731787313 0  0.8826245316481591 0.1497021496342202 0  0.8997021496342202 0.132624531648159 0  0.9145967731787312 0.1136129493462312 0  0.927091205130642 0.09294463440875371 0  0.9370032485370829 0.07092097740850713 0  0.9441883634852104 0.04786313285751155 0  0.9485417748196108 0.02410733605106461 0  0.95 0 0  1 0 0  1 0.3 0  0.9758926639489353 0.3014582251803892 0  0.9521368671424885 0.3058116365147896 0  0.9290790225914928 0.3129967514629171 0  0.9070553655912461 0.3229087948693581 0  0.8863870506537688 0.3354032268212687 0  0.867375468351841 0.3502978503657798 0  0.8502978503657798 0.367375468351841 0  0.8354032268212687 0.3863870506537689 0  0.822908794869358 0.4070553655912464 0  0.8129967514629171 0.4290790225914929 0  0.8058116365147896 0.4521368671424885 0  0.8014582251803892 0.4758926639489354 0  0.8 0.4999999999999999 0  0.8014582251803892 0.5241073360510646 0  0.8058116365147896 0.5478631328575115 0  0.8129967514629171 0.5709209774085071 0  0.8229087948693581 0.5929446344087538 0  0.8354032268212688 0.6136129493462312 0  0.8502978503657798 0.632624531648159 0  0.867375468351841 0.6497021496342202 0  0.8863870506537689 0.6645967731787313 0  0.9070553655912463 0.677091205130642 0  0.9290790225914929 0.6870032485370829 0  0.9521368671424885 0.6941883634852104 0  0.9758926639489354 0.6985417748196108 0  1 0.7 0  1 1 0  0.95 1 0  0.9485417748196108 0.9758926639489353 0  0.9441883634852104 0.9521368671424885 0  0.9370032485370829 0.9290790225914928 0  0.927091205130642 0.9070553655912463 0  0.9145967731787312 0.8863870506537688 0  0.8997021496342201 0.8673754683518409 0  0.882624531648159 0.8502978503657798 0  0.863612949346231 0.8354032268212686 0  0.8429446344087537 0.822908794869358 0  0.8209209774085071 0.8129967514629171 0  0.7978631328575114 0.8058116365147896 0  0.7741073360510646 0.8014582251803892 0  0.75 0.8 0  0.7258926639489353 0.8014582251803892 0  0.7021368671424885 0.8058116365147896 0  0.6790790225914928 0.8129967514629171 0  0.6570553655912461 0.8229087948693581 0  0.6363870506537688 0.8354032268212688 0  0.617375468351841 0.8502978503657798 0  0.6002978503657798 0.867375468351841 0  0.5854032268212687 0.8863870506537689 0  0.572908794869358 0.9070553655912463 0  0.5629967514629171 0.9290790225914929 0  0.5558116365147896 0.9521368671424885 0  0.5514582251803892 0.9758926639489355 0  0.55 0.9999999999999999 0  0.45 0.9999999999999999 0  0.4485417748196108 0.9758926639489353 0  0.4441883634852104 0.9521368671424885 0  0.4370032485370829 0.9290790225914928 0  0.427091205130642 0.9070553655912463 0  0.4145967731787313 0.8863870506537688 0  0.3997021496342201 0.8673754683518409 0  0.382624531648159 0.8502978503657798 0  0.363612949346231 0.8354032268212686 0  0.3429446344087536 0.822908794869358 0  0.3209209774085071 0.8129967514629171 0  0.2978631328575115 0.8058116365147896 0  0.2741073360510646 0.8014582251803892 0  0.25 0.8 0  0.2258926639489353 0.8014582251803892 0  0.2021368671424885 0.8058116365147896 0  0.1790790225914928 0.8129967514629171 0  0.1570553655912462 0.8229087948693581 0  0.1363870506537688 0.8354032268212688 0  0.117375468351841 0.8502978503657798 0  0.1002978503657797 0.867375468351841 0  0.08540322682126869 0.8863870506537689 0  0.07290879486935797 0.9070553655912463 0  0.06299675146291703 0.9290790225914929 0  0.05581163651478957 0.9521368671424885 0  0.0514582251803892 0.9758926639489355 0  0.04999999999999999 0.9999999999999999 0  0 1 0  -0 0.7000000000000001 0  0.0241073360510646 0.6985417748196108 0  0.04786313285751161 0.6941883634852104 0  0.07092097740850711 0.6870032485370829 0  0.09294463440875372 0.677091205130642 0  0.1136129493462312 0.6645967731787312 0  0.1326245316481591 0.6497021496342202 0  0.1497021496342202 0.632624531648159 0  0.1645967731787313 0.6136129493462312 0  0.177091205130642 0.5929446344087537 0  0.187003248537083 0.5709209774085071 0  0.1941883634852104 0.5478631328575115 0  0.1985417748196108 0.5241073360510646 0  0.2 0.5 0  0.1985417748196108 0.4758926639489353 0  0.1941883634852104 0.4521368671424885 0  0.1870032485370829 0.4290790225914928 0  0.177091205130642 0.4070553655912463 0  0.1645967731787313 0.3863870506537688 0  0.1497021496342202 0.3673754683518409 0  0.132624531648159 0.3502978503657798 0  0.113612949346231 0.3354032268212686 0  0.09294463440875361 0.322908794869358 0  0.07092097740850711 0.3129967514629171 0  0.04786313285751148 0.3058116365147896 0  0.02410733605106464 0.3014582251803892 0  0.6985417748196108 0.5241073360510646 0  0.7 0.5 0  0.6985417748196108 0.4758926639489353 0  0.6941883634852104 0.4521368671424885 0  0.6870032485370829 0.4290790225914928 0  0.677091205130642 0.4070553655912463 0  0.6645967731787312 0.3863870506537688 0  0.6497021496342201 0.3673754683518409 0  0.632624531648159 0.3502978503657798 0  0.613612949346231 0.3354032268212686 0  0.5929446344087537 0.322908794869358 0  0.5709209774085071 0.3129967514629171 0  0.5478631328575114 0.3058116365147896 0  0.5241073360510646 0.3014582251803892 0  0.4999999999999999 0.3 0  0.4758926639489353 0.3014582251803892 0  0.4521368671424885 0.3058116365147896 0  0.4290790225914928 0.3129967514629171 0  0.4070553655912462 0.3229087948693581 0  0.3863870506537688 0.3354032268212687 0  0.367375468351841 0.3502978503657798 0  0.3502978503657798 0.367375468351841 0  0.3354032268212687 0.3863870506537689 0  0.322908794869358 0.4070553655912464 0  0.3129967514629171 0.4290790225914929 0  0.3058116365147896 0.4521368671424885 0  0.3014582251803892 0.4758926639489354 0  0.3 0.4999999999999999 0  0.3014582251803892 0.5241073360510646 0  0.3058116365147896 0.5478631328575115 0  0.3129967514629171 0.5709209774085071 0  0.3229087948693581 0.5929446344087538 0  0.3354032268212687 0.6136129493462312 0  0.3502978503657798 0.632624531648159 0  0.367375468351841 0.6497021496342202 0  0.3863870506537689 0.6645967731787313 0  0.4070553655912463 0.677091205130642 0  0.4290790225914929 0.6870032485370829 0  0.4521368671424885 0.6941883634852104 0  0.4758926639489354 0.6985417748196108 0  0.4999999999999999 0.7 0  0.5241073360510646 0.6985417748196108 0  0.5478631328575116 0.6941883634852104 0  0.5709209774085071 0.6870032485370829 0  0.5929446344087537 0.677091205130642 0  0.6136129493462312 0.6645967731787312 0  0.6326245316481591 0.6497021496342202 0  0.6497021496342202 0.632624531648159 0  0.6645967731787312 0.6136129493462312 0  0.677091205130642 0.5929446344087537 0  0.6870032485370829 0.5709209774085071 0  0.6941883634852104 0.5478631328575115 0  0 0.15 0  1 0.15 0  1 0.85 0  0 0.8500000000000001 0  0 0.075 0  1 0.075 0  1 0.925 0  0 0.925 0  0.5 0.8127595604293815 0  0.5069440078039168 0.190422209288238 0  0.25 0.3127595604293815 0  0.756944007803917 0.3095777907117619 0  0.756944007803917 0.6904222092882382 0  0.25 0.6872404395706185 0  0 0.225 0  0.4255768646051012 0.2241073097134061 0  1 0.7749999999999999 0  0.6773391559270888 0.2766774022734219 0  1 0.225 0  0.6755768646051011 0.7241073097134062 0  0 0.7750000000000001 0  0.5818971135297744 0.2287925518358889 0  0.8318971135297746 0.728792551835889 0  0.1659156081861886 0.7301636995921477 0  0.08376842746533225 0.2299656297760495 0  0.4236002201977974 0.7746535834185855 0  0.0840843918138115 0.7698363004078523 0  0.3340843918138113 0.7301636995921477 0  0.3340843918138114 0.2698363004078523 0  0.9159156081861887 0.2301636995921477 0  0.5840843918138116 0.7698363004078522 0  0.1659156081861887 0.2698363004078523 0  0.9162315725346678 0.7700343702239506 0  0.8340843918138114 0.2698363004078523 0  0.75 0.6146645247768686 0  0.5 0.1125158665330878 0  0.75 0.3874841334669124 0  0.2504983345544904 0.6122915843562002 0  0.2504983345544902 0.3877084156437999 0  0.5 0.8879783056303169 0  0.7005361650220154 0.3333055947145943 0  0.70416808765371 0.6599554817221275 0  0.449930214263529 0.1678187287522426 0  0.2247310981387008 0.7415600637745463 0  0.5155081196221678 0.7563797802146907 0  0.2752689018612993 0.2584399362254537 0  0.05605196690611226 0.8246131191226815 0  0.9439480330938878 0.1
[...]
<PointData  Scalars="Temperature"> 
<DataArray  type="Float64"  Name="Temperature"  format="ascii">-5.3665064935945646e+227  6.5918693407318367e+225  1.9526114850018661e+225  -3.0269191387278844e+225  4.5022022851937919e+225  -2.0765761938487773e+226  1.5693237363610175e+227  -4.5133303468681827e+227  -1.9692961880340502e+227  -7.1182592380903747e+228  -3.5840869539647206e+229  9.9758574457826761e+230  1.6849495512398211e+231  1.9274831766836986e+230  2.5956737901445273e+230  1.7063074952352226e+231  -6.7291644384280824e+231  2.9724588808744656e+232  -9.7977557029410623e+232  2.3937414099528746e+233  -4.8519512124552450e+234  -2.8754536235730428e+234  4.6552190568287752e+233  -1.3361260623888148e+233  -8.2076354433260880e+230  -3.7888246893382784e+230  6.9551776636783892e+230  -2.1888469051372172e+230  1.2462410844979160e+230  2.6114823999463662e+228  -2.1800762977042742e+228  -2.3083569721813304e+228  -1.1631053829713067e+229  -5.7689945416654546e+228  5.8807959282894573e+229  -6.6328850086528742e+229  -7.3693649759344670e+230  -1.8731995476208707e+231  -7.9866400697096197e+230  -3.4090569139207659e+230  -3.5729493738652240e+230  3.8940111370182341e+229  2.7767553768370728e+230  5.8010925943986484e+229  6.9131173092771570e+229  -6.2178407312888614e+230  -6.1347697621379141e+231  1.1234040370943558e+232  3.4665789790704849e+233  7.4460910263513016e+233  3.7199534518770112e+234  -5.8221018939308107e+234  1.2692171346569462e+234  5.9480528729470873e+233  1.3397537802848223e+233  -5.1452768450759310e+232  2.9905974332791881e+232  -2.8080498958497356e+230  -3.5169436873914488e+230  -4.5703206953660279e+230  -7.4922191300743892e+230  -3.8415184420438951e+230  -2.0652362219097224e+230  -1.0611813627753921e+229  -1.8627394466743920e+227  -2.3502871211457289e+228  -4.6977675609904647e+227  2.6423366453966187e+228  -6.0101913826040583e+229  2.3897899202152996e+230  2.0775831386266469e+231  -1.4148411871900979e+232  4.5588861278489593e+232  -3.1162314489743260e+233  2.6499414462914120e+234  -2.3903992173278809e+234  8.0884096314817389e+235  1.7427920165536202e+237  3.2215531640875548e+237  5.1440544443545566e+238  -7.6450526345280734e+237  -9.2959751153013340e+239  1.7927922240574505e+240  6.4819421947627813e+240  4.4336318634106158e+237  -2.3480375547203597e+238  3.4023629975441441e+238  3.2388225144487864e+238  5.5348617492169125e+239  -6.4381597566206062e+239  3.1016463925474008e+240  -1.9101095944536099e+240  1.4939000035991941e+238  2.4246282919954503e+239  7.9123301666038353e+238  -1.3023034183013415e+238  -1.2272013380318081e+237  -1.7257568400970894e+235  -1.1001338565823776e+235  -5.4759753119904824e+233  -2.6660955154586188e+232  1.9703292831304089e+232  -7.5991125741492328e+230  -1.5170354714467517e+230  -3.7801714843517021e+230  -6.2547454279128044e+230  -2.5348999486987773e+232  2.1336538057548566e+232  -7.2061236302411740e+231  -1.5567948667351875e+230  1.8612362422387599e+230  4.2525552060380135e+230  5.7060933170981142e+228  -2.3420411951933640e+228  8.5026603426683502e+228  -3.0803039164011001e+229  3.5159381931813848e+229  -1.8220311317955296e+229  4.3211234967441162e+229  -3.8728264242262735e+229  2.7033473118370221e+230  -7.5051463249972853e+229  1.2221304426848441e+230  -8.8140357386540147e+229  -7.6863671543291159e+229  -1.1471588142818185e+231  2.5139773576298243e+231  -4.0800402528907495e+232  -2.2771470061019611e+231  8.1612743415337614e+229  1.4291798029014252e+230  -1.8537336051538427e+229  5.0485668922566294e+228  -2.8572116419404744e+228  5.4991376758879884e+227  -1.4646945438480197e+227  7.2595238541343296e+226  -5.4718126995397046e+225  1.8665302325122039e+224  -8.7330632534082675e+225  1.0149612191200441e+230  -1.5970855650733176e+231  -9.3994009821599124e+231  4.0560782278786459e+231  -8.5305275912783900e+233  3.1195185228921585e+234  -2.1314731689608265e+235  -9.9623072458507245e+234  2.1860963325920789e+234  1.1864860622194178e+233  -1.9234794390570830e+231  8.3929325867516300e+231  -2.1287789294561556e+231  -2.4629285968182592e+230  -9.1961275735024746e+230  6.4514344389444658e+228  -1.2894775893559658e+229  1.2452679662649869e+229  -1.8831699635211769e+229  -7.7631050681886352e+228  -1.6156799932601173e+229  7.2163056513434086e+229  8.3081522265188910e+230  -4.8460440829208735e+229  3.8160435032691608e+229  4.6528513453213354e+228  -3.2093197302126518e+230  2.2739163809673859e+230  -2.2740656770230045e+229  1.1476590580738442e+229  -1.5432423688440015e+227  6.2645799461466136e+227  -1.2802080779158191e+228  -1.7988126329925503e+228  -1.0783645537039418e+229  -4.5911619030833129e+226  -6.5236361800987397e+227  1.1207429095186403e+228  1.6276154003404214e+228  2.4528609777342155e+229  1.0616290495969242e+230  -9.3019563208966653e+229  -1.4083862402774882e+230  -2.0644577067272128e+231  3.0085278755340308e+229  -1.4811414409923500e+229  1.9417253662492821e+229  -5.8123184392514512e+228  -4.3152855479568459e+227  -3.0920171438265279e+228  1.1094927500274313e+229  -1.8276893868064035e+229  -2.5794068093340595e+229  7.8820212129209089e+229  -1.7488970142235406e+231  -2.6276549824359017e+230  1.4202976470723237e+231  4.0146843642555804e+229  4.3773722049349167e+231  -1.6464023141639028e+231  2.7458778943902138e+232  1.1707057437736164e+233  -1.1536691896348337e+234  -2.6685741951103847e+234  -2.1926990123375611e+234  -1.7661869436010662e+233  3.5449821332270866e+232  1.2720263264994650e+232  -1.7210893619831725e+231  1.3235968014340866e+231  1.4843577428707426e+230  -2.3240269250662086e+230  -4.1982890486160447e+230  4.4754267190298336e+230  -2.2639555490096087e+231  9.8979055893761089e+231  3.7372708896007622e+232  2.8809956125231172e+231  -2.4808411117257287e+227  -2.0088831357402430e+232  -4.9596218390792487e+242  -3.7512922613491563e+228  -8.7486177594620037e+225  -1.4764244974866776e+233  -9.5776453783440735e+239  -5.5223147294251583e+226  -2.7148961782278506e+230  -1.4977986609616600e+231  3.8457562556464759e+227  -3.0383228284127149e+230  1.8017594329985550e+234  -7.5712565224786325e+231  -1.6408137504334821e+227  1.2174171667664360e+232  -4.7661276445138761e+242  -1.7900000720928050e+230  6.4871117066303216e+230  6.0343939733682306e+231  4.1260263106362620e+229  7.6841788601323774e+228  1.7715918463505620e+237  8.4281467887870452e+232  5.6985774606812234e+228  -1.3430967028068366e+232  1.6222815932226887e+231  3.1526543791481289e+231  1.3150961721780890e+231  1.3363504037404941e+230  1.4415941722792202e+230  4.5932334297980334e+229  3.2705268176403156e+240  3.6659032443253174e+229  -1.0107132807711179e+233  4.8477083406179231e+230  7.9655777167840770e+227  -4.7030959534469184e+232  -2.9646110302458420e+229  -3.2617265709124118e+229  -4.0364175936954565e+229  1.1240430144903821e+232  1.6852480050771708e+232  -4.7805225986984381e+231  -9.4441999072700437e+230  -2.3386210458157801e+230  5.2003027579871231e+229  -1.8989865996167419e+232  4.3806530377254691e+226  5.2541155611648898e+241  -9.3942611741046595e+229  7.6141001749572904e+233  3.1358468563629623e+231  -4.0384144898092356e+230  -1.3126086995842447e+234  -2.9778991692535933e+226  2.7729008567757569e+231  -1.0563566102596493e+230  6.8170497825675889e+229  1.3877497847380176e+229  -9.8416545505540544e+227  2.8751859735180002e+231  1.5829266720165806e+229  -1.4225509115939051e+232  -3.4634504064825435e+229  -1.4195978247094839e+230  6.7535472268937755e+228  3.6068550314058519e+230  -4.5686131221315347e+229  1.0328423280342134e+235  9.9282701049828940e+228  5.6402820184062432e+227  -3.2439737548271343e+231  -1.0951562231489662e+233  3.8496090338835714e+231  -1.7815098268556279e+230  -2.4004067907092946e+228  3.8169505625865956e+235  5.0153458671569324e+230  -3.3458326852107603e+230  -3.2642328724635709e+229  1.0174250728698425e+231  3.9740210831862105e+231  3.4860803146858171e+232  1.8911046003004150e+230  6.0072728144531411e+238  7.8911013664908837e+238  -1.5161289977898132e+232  -2.0819770587189745e+229  6.8278576960435201e+230  -9.7257987320365805e+229  4.8228849943222918e+231  2.7523093781042161e+230  1.0395622362216444e+233  -2.2772112473214580e+230  5.4277906219838442e+230  4.8199508755825574e+240  2.8856560588010906e+228  -5.3207082295988391e+233  2.4285690275746764e+241  -1.7397355389497179e+227  -2.9034614832641268e+228  1.1657029330885298e+228  1.8693744393327942e+236  -7.1026334957759428e+229  8.5386187875945749e+232  -4.2177758575700342e+229  -1.0493408548296651e+232  -3.7408660817566398e+229  2.8437200182867663e+231  1.6706021233762721e+230  6.1303320720883831e+233  2.4888967097462479e+229  -5.6879529081897458e+228  5.3659700653881198e+239  -3.4977528717978774e+233  3.5368164648523057e+228  7.7100847490385437e+230  1.9506520542804381e+237  -4.0954622242672061e+228  -9.1863723242268166e+231  -1.9365904098554331e+230  9.4017728582760342e+228  1.0116201068367070e+231  -1.2375466280435294e+231  1.4243046288872543e+231  -4.1301305641176399e+233  1.0084614932992345e+233  3.2160210744521831e+229  1.3926636527578467e+233  1.0258036711872040e+228  9.3312457313842239e+230  6.8761618608755689e+236  -1.1324375856420166e+230  3.9321399765797746e+230  -7.7874263283761318e+231  1.0112605547294265e+230  1.2378162000762171e+229  6.3752655255032312e+228  -7.4816028920790044e+230  7.3021725878394529e+231  -3.1348561707886853e+227  1.0563919621890270e+230  5.6849037978477207e+230  1.4764046033273579e+230  -3.6578067053328804e+230  2.4358411740970897e+229  4.4288468273645990e+231  5.3997804199175465e+230  -7.8881355840685996e+240  7.6555023419668356e+231  3.3627602615871970e+229  -5.3906448944622943e+228  -2.9910387620043549e+231  -5.5720242057281687e+226  -4.4513735253572495e+232  -9.4942111828055179e+231  -5.9855696817140173e+233  -1.1376822678586424e+232  -5.3735410319673679e+228  -5.4097637254750216e+230  -4.4452381693717686e+228  -2.5714475860567738e+232  1.9110329652994850e+231  1.2657775536152425e+230  1.0877544188406669e+228  8.9301716053060414e+227  7.2260101557983903e+231  -3.2418713718684834e+230  5.5726944591616446e+229  5.9804774373456732e+243  2.3941706084017636e+230  4.3575155826429155e+241  4.4395247092558708e+229  -3.8686127652610408e+227  -8.2339049140880063e+232  4.5374040189976517e+225  8.3292771878697026e+232  -2.1523983006087604e+233  1.1802122953708591e+227  -5.7439803751760685e+238  -4.1455242637755397e+225  -7.9359161698611715e+240  3.1885091754243620e+227  -3.0807526321530581e+227  -1.7114213575196338e+229  -9.7957943599584269e+231  4.6204375351544221e+231  9.6171739638970154e+229  -8.8947711374051610e+229  8.9497620139765249e+239  1.1465328477690075e+230  1.6724336775052846e+230  1.9420733107424155e+235  6.6292585843334363e+232  -1.6895355096617833e+233  8.2267390397292107e+241  -8.1099277030406600e+228  3.0664501060155855e+229  -4.3160381130231357e+232  -3.9766722679754773e+228  1.2933055651924504e+230  -8.0665348827614881e+227  -5.2099730017896382e+229  4.2180275413315323e+231  -1.9998618326826560e+229  -3.9070025178155237e+231  3.4433959563457986e+231  1.1762555428965134e+231  -1.1493049892489539e+241  -5.4660897807934770e+226  2.3880822856911915e+229  1.2363925647213793e+236  -4.2313811889368970e+230  -1.1528115872380102e+228  -7.2318885562299989e+228  -2.3637122605864792e+228  -4.2390318039212668e+232  -6.0871827912684232e+229  -1.5481363121883841e+229  -2.3392089913836252e+232  1.7341241270834044e+230  -1.9188336935813284e+233  -2.3544502294434274e+225  2.4879591153874908e+233  -4.1324066049569118e+239  -2.2296707900808360e+226  1.1345181811977539e+231  -5.4191086428660145e+231  8.3674013313132645e+230  -3.7181133335594241e+228  -1.7822998341291423e+229  -1.0061979940588074e+233  1.2367620908005572e+231  9.6524667178558467e+230  1.8267400960873140e+228  1.1866805804090434e+227  -2.0092206460154012e+227  1.3473035723620140e+233  4.4935986297486174e+232  2.2037986845506080e+229  -2.0179161707508210e+231  -1.7676560354279247e+232  6.7072211347514049e+230  7.9939689862817352e+231  1.1103429329677325e+228  7.5781583050497932e+230  -6.3871648282896757e+233  7.2108601754142489e+229  -2.5431705709088020e+242  -4.0007398537073996e+231  3.2658780944663590e+233  4.1524826554004401e+229  -2.2421999389350243e+230  4.4913401363075565e+228  3.5929163179702161e+229  5.3546765949050350e+228  3.1154859773199085e+229  3.1731690171158537e+228  1.2682988286156188e+230  2.4268547206030025e+229  -8.7265294332199599e+230  1.5952464627388271e+238  -1.5444667650317561e+229  -7.0257787925873142e+229  -6.5936385240108920e+225  -2.4260867472545488e+232  7.5326430094958948e+228  4.4984567317025856e+230  -2.6276239042437315e+231  3.2786706201969655e+232  -2.8260338963536934e+231  -7.8081177917991384e+228  3.6332130951479215e+231  -6.5280839110316599e+229  8.7559192582466052e+230  3.0036805053066254e+229  2.2100527033671490e+233  -5.2369498599676334e+228  -9.0515695921936872e+228  6.9308872531140410e+231  -1.4799974428057818e+234  -3.1038410925481054e+230  -7.1452311045252694e+230  1.9742471653144800e+231  3.5396674737604245e+230  1.7833677923851019e+231  -2.7028418012204428e+229  1.1498136097167214e+233  7.3748973751927543e+233  1.2271761953709114e+234  -4.5506936377057460e+230  2.5991036311852314e+232  -3.4290061982287700e+231  -2.0918346541876582e+231  -7.2849327934467262e+229  -1.8023978333652567e+231  -5.2805884201273517e+230  -6.0496096508004660e+228  1.2905359521303664e+231  2.7348046570213026e+230  -6.1604274810934017e+229  3.6260289882172622e+241  2.0011094200065680e+229  -1.1156354816052281e+229  -2.0006232540079050e+229  1.2316692154816215e+238  -1.2352494251830959e+238  -1.3036746665207278e+230  3.9312963776680735e+229  1.6895195920094414e+231  -6.5706731347556857e+230  2.1186288067307350e+230  2.5847556438414294e+231  -1.0011270771328008e+231  2.1598693837303206e+230  -9.2884870373901056e+232  2.1924829632782154e+229  -2.3622805476050474e+230  -1.9434608867650050e+229  -8.6064776375207646e+229  -1.8024161003715956e+232  2.6204584691683167e+231  8.7151590014700664e+229  2.8544698452401619e+229  -1.2118808654348849e+238  -9.4185215942578866e+231  -1.6556324253897881e+224  1.6136524667775946e+223  -8.1020840339622586e+231  1.5003418012696069e+227  -2.2676327207005074e+231  -2.2631886166532340e+230  1.0372603685057651e+232  -5.2004180602779808e+228  -2.1386116411771205e+229  3.3767155600636462e+230  -2.6748277597912476e+229  9.8689425910796847e+229  6.6391253092657930e+237  3.6737141318412446e+238  4.4522714759003998e+239  6.9469759413791670e+237  -2.7855874301664026e+230  6.4556223096210090e+232  -7.6002315472369178e+232  -1.3674829710172969e+229  -3.9365786893959033e+229  -1.8814207404935487e+230  2.9505749552529861e+229  5.3095272066123729e+232  6.9277000571280904e+230  -4.4318129134106560e+231  2.1535263663497090e+229  -1.6542018176304588e+230  6.5596439712820155e+231  1.6078535066879952e+229  1.3713731121952303e+230  8.6605717111281847e+231  3.4842355689109254e+227  1.0662107893059694e+227  3.9924395985904623e+232  1.6904691811978515e+235  5.0950635679449684e+234  5.4289327078722616e+240  -4.4920321187249495e+231  -2.4278354426961979e+228  1.9333096980497062e+230  6.8088028711852808e+231  3.3752845318840901e+232  4.6763630893745601e+230  4.7134910392193808e+230  2.5415756188698914e+229  5.0284740690366876e+227  -1.3451195985649816e+239  -4.1728218085870042e+229  1.4084410254301563e+228  5.8072978563738462e+229  -3.6890599002124449e+230  1.6752157712498672e+234  -7.3224205280885298e+228  5.6297568604663798e+229  1.6971328385953848e+231  -6.7036638896167708e+228  2.6501646871887194e+227  1.0497284625216857e+242  -6.7572769428087814e+232  -1.9990174919931399e+229  -1.4608897584576433e+228  -1.8552907048335626e+231  5.0160325686516931e+230  -1.4144467571217035e+233  2.3170586074675265e+225  -3.9582139479402339e+225  -6.2156497387903639e+238  1.0255050084135693e+231  6.9511919371130267e+226  9.9745801328017266e+238  4.3448533355291108e+229  4.6557709705417393e+233  -8.5730270719934173e+229  -1.8660113576702956e+230  -1.5793406372407771e+230  1.2011941592320327e+229  -3.8933065099957980e+234  8.9971101934958938e+231  2.0621448280944657e+231  6.5911668782292538e+229  7.2696289909152748e+232  -1.0641657392216964e+232  1.5974179823610405e+230  -1.8030997622705649e+230  2.6994088683519837e+230  -1.0563914274627135e+228  -8.7264289838603398e+229  -7.7595944280230991e+230  -2.3635062534708124e+231  1.1337675789354777e+236  -6.7582049242659765e+227  -6.4879832935707216e+232  3.8534818597946190e+236  8.2898749282053213e+234  7.3436419109391062e+234  3.8147347486880034e+231  8.9109832421096942e+227  1.5768534164566136e+241  -1.9002857529802902e+229  6.9157260508883985e+229  6.1227195254369123e+228  1.1685147778131141e+230  -4.3719551090445489e+231  -1.0806651581206709e+232  -3.8491655086693057e+229  3.0089214140450918e+242  2.9056766747851176e+229  2.0582308656836467e+231  5.1598131545486507e+228  1.0867637188216289e+229  9.9707264147946883e+229  -1.2693766253089145e+229  4.3984875380911309e+230  9.7534319591685395e+231  -2.8807607229070605e+229  -3.6144228885512728e+231  -1.6822115094823214e+230  -1.7842253388533008e+230  -2.4605555161326531e+230  -4.9649256921498646e+240  -1.1782595603805657e+227  -3.7190698541829736e+230  1.9457653483072408e+229  9.1202222579294305e+230  5.5677787725033936e+230  3.1015691619827778e+229  2.3325975371131693e+228  -4.1035436215185076e+230  -4.0181272614954885e+228  1.0479061001019894e+230  -8.1088072950106090e+229  -8.0445912647989206e+227  -2.0701673283356110e+234  -2.3647714476066963e+237  -3.3313783129449276e+233  -5.7903802434828816e+233  -1.4004926612396478e+230  -2.7750245330424389e+230  8.6556667295753485e+230  4.4883177075039001e+230  -1.1989338951882014e+240  -2.6612135405881140e+240  1.2189262023527355e+227  -6.2131338638468984e+227  -7.9730381213469293e+231  -7.7069586589889133e+230  3.4891224784590495e+228  -4.0057125991211076e+226  -1.9229230069633486e+232  -8.5975876739616646e+231  7.8135062189554786e+231  -1.8147244142417040e+243  -3.2692293234745373e+231  2.9978615026358117e+231  -2.0228412209053943e+229  3.1754044418638942e+230  1.6833021336668968e+229  -2.1912522643351029e+229  -2.9869851949591684e+231  -1.2970121750381425e+233  -2.8806193249047637e+233  -6.9963161777346535e+228  9.9886467765958641e+231  -5.8360012425428603e+229  -4.6214815066552116e+233  -1.7568370603456959e+233  -9.6496526962856612e+228  4.8450213186854193e+241  -1.3661723755711933e+227  -5.2782888629373580e+227  1.9226524223366090e+227  6.1185264454640402e+240  -2.1535285497445503e+240  5.9233659016732674e+236  -2.0352438304746103e+231  5.4303549056154347e+235  -1.9902426712756599e+232  -9.6872988357311855e+233  -5.2895920014687692e+232  -1.0172602908404790e+233  -1.6000392398601519e+229  -1.2787159469523411e+228  -9.0531835536480420e+228  -1.2855694876056257e+231  1.4271873208909610e+225  -5.2884089773634525e+227  -9.5220751410838185e+232  2.0267022317212471e+240  -5.3691057720177382e+229  8.1082261523135667e+229  2.2506814763720841e+228  -6.6737474641692676e+228  -6.3519774616741226e+232  1.0532881017715492e+230  -3.2803744467349920e+230  -2.0179865501508698e+231  3.6232746719466082e+235  1.1960287139127774e+235  8.7726263902076827e+236  2.5050531279944038e+229  1.8406102535771588e+230  -6.5661914779104330e+229  3.5144548245523120e+236  -6.2438096212188529e+229  4.6987795448844078e+232  -2.7448558603729400e+232  -2.0670332967714121e+230  2.8197926807649309e+242  -2.8097512647311286e+229  1.6570161751926045e+228  7.3514945517898034e+234  -3.1313178237205362e+232  -1.3511316281362355e+231  -8.7793911523024693e+231  -4.4021874111935412e+229  6.8535871580057071e+230  -3.5218051024370290e+230  1.3415664467112994e+230  9.1182899770173965e+227  5.5471100264784497e+228  3.4690765390808704e+230  8.3884988072537639e+229  4.4960050090999570e+227  -1.7856160381930160e+229  8.8996700538083202e+228  1.7117758201895020e+229  -5.1436676358184711e+230  -5.5698308631344514e+231  -2.2700353472615238e+234  5.2454751102763312e+232  1.0366319553074277e+229  -2.1541852649443805e+230  7.0171597581269993e+229  7.5564588588127286e+228  1.66420002