<?xml version="1.0"?>
<VTKFile type="UnstructuredGrid"  version="0.1"  >
<UnstructuredGrid>
<Piece  NumberOfPoints="2331" NumberOfCells="4248">
<Points>
<DataArray  type="Float64"  NumberOfComponents="3"  format="ascii">0 0.3 0  0 0 0  0.04999999999999999 0 0  0.0514582251803892 0.02410733605106462 0  0.0558116365147896 0.04786313285751154 0  0.06299675146291706 0.07092097740850717 0  0.07290879486935808 0.09294463440875382 0  0.08540322682126872 0.1136129493462312 0  0.1002978503657798 0.132624531648159 0  0.117375468351841 0.1497021496342203 0  0.1363870506537689 0.1645967731787313 0  0.1570553655912463 0.177091205130642 0  0.1790790225914929 0.187003248537083 0  0.2021368671424885 0.1941883634852104 0  0.2258926639489354 0.1985417748196108 0  0.25 0.2 0  0.2741073360510646 0.1985417748196108 0  0.2978631328575116 0.1941883634852104 0  0.3209209774085071 0.187003248537083 0  0.3429446344087537 0.177091205130642 0  0.3636129493462312 0.1645967731787313 0  0.3826245316481591 0.1497021496342202 0  0.3997021496342202 0.132624531648159 0  0.4145967731787313 0.1136129493462312 0  0.427091205130642 0.09294463440875371 0  0.4370032485370829 0.07092097740850713 0  0.4441883634852104 0.04786313285751155 0  0.4485417748196108 0.02410733605106461 0  0.45 0 0  0.55 0 0  0.5514582251803892 0.02410733605106462 0  0.5558116365147896 0.04786313285751154 0  0.5629967514629171 0.07092097740850717 0  0.5729087948693581 0.09294463440875382 0  0.5854032268212688 0.1136129493462312 0  0.6002978503657798 0.132624531648159 0  0.617375468351841 0.1497021496342203 0  0.6363870506537689 0.1645967731787313 0  0.6570553655912463 0.177091205130642 0  0.6790790225914929 0.187003248537083 0  0.7021368671424885 0.1941883634852104 0  0.7258926639489354 0.1985417748196108 0  0.75 0.2 0  0.7741073360510646 0.1985417748196108 0  0.7978631328575116 0.1941883634852104 0  0.8209209774085071 0.187003248537083 0  0.8429446344087537 0.177091205130642 0  0.8636129493462312 0.1645967731787313 0  0.8826245316481591 0.1497021496342202 0  0.8997021496342202 0.132624531648159 0  0.9145967731787312 0.1136129493462312 0  0.927091205130642 0.09294463440875371 0  0.9370032485370829 0.07092097740850713 0  0.9441883634852104 0.04786313285751155 0  0.9485417748196108 0.02410733605106461 0  0.95 0 0  1 0 0  1 0.3 0  0.9758926639489353 0.3014582251803892 0  0.9521368671424885 0.3058116365147896 0  0.9290790225914928 0.3129967514629171 0  0.9070553655912461 0.3229087948693581 0  0.8863870506537688 0.3354032268212687 0  0.867375468351841 0.3502978503657798 0  0.8502978503657798 0.367375468351841 0  0.8354032268212687 0.3863870506537689 0  0.822908794869358 0.4070553655912464 0  0.8129967514629171 0.4290790225914929 0  0.8058116365147896 0.4521368671424885 0  0.8014582251803892 0.4758926639489354 0  0.8 0.4999999999999999 0  0.8014582251803892 0.5241073360510646 0  0.8058116365147896 0.5478631328575115 0  0.8129967514629171 0.5709209774085071 0  0.8229087948693581 0.5929446344087538 0  0.8354032268212688 0.6136129493462312 0  0.8502978503657798 0.632624531648159 0  0.867375468351841 0.6497021496342202 0  0.8863870506537689 0.6645967731787313 0  0.9070553655912463 0.677091205130642 0  0.9290790225914929 0.6870032485370829 0  0.9521368671424885 0.6941883634852104 0  0.9758926639489354 0.6985417748196108 0  1 0.7 0  1 1 0  0.95 1 0  0.9485417748196108 0.9758926639489353 0  0.9441883634852104 0.9521368671424885 0  0.9370032485370829 0.9290790225914928 0  0.927091205130642 0.9070553655912463 0  0.9145967731787312 0.8863870506537688 0  0.8997021496342201 0.8673754683518409 0  0.882624531648159 0.8502978503657798 0  0.863612949346231 0.8354032268212686 0  0.8429446344087537 0.822908794869358 0  0.8209209774085071 0.8129967514629171 0  0.7978631328575114 0.8058116365147896 0  0.7741073360510646 0.8014582251803892 0  0.75 0.8 0  0.7258926639489353 0.8014582251803892 0  0.7021368671424885 0.8058116365147896 0  0.6790790225914928 0.8129967514629171 0  0.6570553655912461 0.8229087948693581 0  0.6363870506537688 0.8354032268212688 0  0.617375468351841 0.8502978503657798 0  0.6002978503657798 0.867375468351841 0  0.5854032268212687 0.8863870506537689 0  0.572908794869358 0.9070553655912463 0  0.5629967514629171 0.9290790225914929 0  0.5558116365147896 0.9521368671424885 0  0.5514582251803892 0.9758926639489355 0  0.55 0.9999999999999999 0  0.45 0.9999999999999999 0  0.4485417748196108 0.9758926639489353 0  0.4441883634852104 0.9521368671424885 0  0.4370032485370829 0.9290790225914928 0  0.427091205130642 0.9070553655912463 0  0.4145967731787313 0.8863870506537688 0  0.3997021496342201 0.8673754683518409 0  0.382624531648159 0.8502978503657798 0  0.363612949346231 0.8354032268212686 0  0.3429446344087536 0.822908794869358 0  0.3209209774085071 0.8129967514629171 0  0.2978631328575115 0.8058116365147896 0  0.2741073360510646 0.8014582251803892 0  0.25 0.8 0  0.2258926639489353 0.8014582251803892 0  0.2021368671424885 0.8058116365147896 0  0.1790790225914928 0.8129967514629171 0  0.1570553655912462 0.8229087948693581 0  0.1363870506537688 0.8354032268212688 0  0.117375468351841 0.8502978503657798 0  0.1002978503657797 0.867375468351841 0  0.08540322682126869 0.8863870506537689 0  0.07290879486935797 0.9070553655912463 0  0.06299675146291703 0.9290790225914929 0  0.05581163651478957 0.9521368671424885 0  0.0514582251803892 0.9758926639489355 0  0.04999999999999999 0.9999999999999999 0  0 1 0  -0 0.7000000000000001 0  0.0241073360510646 0.6985417748196108 0  0.04786313285751161 0.6941883634852104 0  0.07092097740850711 0.6870032485370829 0  0.09294463440875372 0.677091205130642 0  0.1136129493462312 0.6645967731787312 0  0.1326245316481591 0.6497021496342202 0  0.1497021496342202 0.632624531648159 0  0.1645967731787313 0.6136129493462312 0  0.177091205130642 0.5929446344087537 0  0.187003248537083 0.5709209774085071 0  0.1941883634852104 0.5478631328575115 0  0.1985417748196108 0.5241073360510646 0  0.2 0.5 0  0.1985417748196108 0.4758926639489353 0  0.1941883634852104 0.4521368671424885 0  0.1870032485370829 0.4290790225914928 0  0.177091205130642 0.4070553655912463 0  0.1645967731787313 0.3863870506537688 0  0.1497021496342202 0.3673754683518409 0  0.132624531648159 0.3502978503657798 0  0.113612949346231 0.3354032268212686 0  0.09294463440875361 0.322908794869358 0  0.07092097740850711 0.3129967514629171 0  0.04786313285751148 0.3058116365147896 0  0.02410733605106464 0.3014582251803892 0  0.6985417748196108 0.5241073360510646 0  0.7 0.5 0  0.6985417748196108 0.4758926639489353 0  0.6941883634852104 0.4521368671424885 0  0.6870032485370829 0.4290790225914928 0  0.677091205130642 0.4070553655912463 0  0.6645967731787312 0.3863870506537688 0  0.6497021496342201 0.3673754683518409 0  0.632624531648159 0.3502978503657798 0  0.613612949346231 0.3354032268212686 0  0.5929446344087537 0.322908794869358 0  0.5709209774085071 0.3129967514629171 0  0.5478631328575114 0.3058116365147896 0  0.5241073360510646 0.3014582251803892 0  0.4999999999999999 0.3 0  0.4758926639489353 0.3014582251803892 0  0.4521368671424885 0.3058116365147896 0  0.4290790225914928 0.3129967514629171 0  0.4070553655912462 0.3229087948693581 0  0.3863870506537688 0.3354032268212687 0  0.367375468351841 0.3502978503657798 0  0.3502978503657798 0.367375468351841 0  0.3354032268212687 0.3863870506537689 0  0.322908794869358 0.4070553655912464 0  0.3129967514629171 0.4290790225914929 0  0.3058116365147896 0.4521368671424885 0  0.3014582251803892 0.4758926639489354 0  0.3 0.4999999999999999 0  0.3014582251803892 0.5241073360510646 0  0.3058116365147896 0.5478631328575115 0  0.3129967514629171 0.5709209774085071 0  0.3229087948693581 0.5929446344087538 0  0.3354032268212687 0.6136129493462312 0  0.3502978503657798 0.632624531648159 0  0.367375468351841 0.6497021496342202 0  0.3863870506537689 0.6645967731787313 0  0.4070553655912463 0.677091205130642 0  0.4290790225914929 0.6870032485370829 0  0.4521368671424885 0.6941883634852104 0  0.4758926639489354 0.6985417748196108 0  0.4999999999999999 0.7 0  0.5241073360510646 0.6985417748196108 0  0.5478631328575116 0.6941883634852104 0  0.5709209774085071 0.6870032485370829 0  0.5929446344087537 0.677091205130642 0  0.6136129493462312 0.6645967731787312 0  0.6326245316481591 0.6497021496342202 0  0.6497021496342202 0.632624531648159 0  0.6645967731787312 0.6136129493462312 0  0.677091205130642 0.5929446344087537 0  0.6870032485370829 0.5709209774085071 0  0.6941883634852104 0.5478631328575115 0  0 0.15 0  1 0.15 0  1 0.85 0  0 0.8500000000000001 0  0 0.075 0  1 0.075 0  1 0.925 0  0 0.925 0  0.5 0.8127595604293815 0  0.5069440078039168 0.190422209288238 0  0.25 0.3127595604293815 0  0.756944007803917 0.3095777907117619 0  0.756944007803917 0.6904222092882382 0  0.25 0.6872404395706185 0  0 0.225 0  0.4255768646051012 0.2241073097134061 0  1 0.7749999999999999 0  0.6773391559270888 0.2766774022734219 0  1 0.225 0  0.6755768646051011 0.7241073097134062 0  0 0.7750000000000001 0  0.5818971135297744 0.2287925518358889 0  0.8318971135297746 0.728792551835889 0  0.1659156081861886 0.7301636995921477 0  0.08376842746533225 0.2299656297760495 0  0.4236002201977974 0.7746535834185855 0  0.0840843918138115 0.7698363004078523 0  0.3340843918138113 0.7301636995921477 0  0.3340843918138114 0.2698363004078523 0  0.9159156081861887 0.2301636995921477 0  0.5840843918138116 0.7698363004078522 0  0.1659156081861887 0.2698363004078523 0  0.9162315725346678 0.7700343702239506 0  0.8340843918138114 0.2698363004078523 0  0.75 0.6146645247768686 0  0.5 0.1125158665330878 0  0.75 0.3874841334669124 0  0.2504983345544904 0.6122915843562002 0  0.2504983345544902 0.3877084156437999 0  0.5 0.8879783056303169 0  0.7005361650220154 0.3333055947145943 0  0.70416808765371 0.6599554817221275 0  0.449930214263529 0.1678187287522426 0  0.2247310981387008 0.7415600637745463 0  0.5155081196221678 0.7563797802146907 0  0.2752689018612993 0.2584399362254537 0  0.05605196690611226 0.8246131191226815 0  0.9439480330938878 0.1
[...]
<PointData  Scalars="Temperature"> 
<DataArray  type="Float64"  Name="Temperature"  format="ascii">2.7727463298242046e+01  2.8901244819306925e+01  2.8894444640665782e+01  2.8874383654279246e+01  2.8816886888758479e+01  2.8723875307336833e+01  2.8593983824331154e+01  2.8424771003547431e+01  2.8218432449249107e+01  2.7973461835338714e+01  2.7685728477437003e+01  2.7363464185709169e+01  2.7043492078513136e+01  2.6905152496633356e+01  2.4741117776867252e+01  1.9633879312899953e+01  3.1136051344445725e+01  -8.1403478055367330e+01  1.7846297430548873e+02  3.8037460597386701e+02  -7.6706435442931761e+03  -2.1020317539021715e+04  -1.2526407630439795e+04  -3.8701026166985619e+04  2.1124211035806249e+04  5.1549304098798320e+03  2.5436073661255355e+03  -6.2204802283158563e+02  5.4087894298782373e+02  1.2657192636394648e+04  -2.3119907978785359e+04  4.2245604957340627e+04  -7.9884669169195800e+05  4.6944197757197050e+06  5.1782359928936079e+07  -3.4882135939957991e+07  -1.3793922963401034e+09  -2.0333185807224312e+09  -8.3906123940928955e+09  2.1450270244343895e+10  -3.1529247683230170e+11  2.5823698095909595e+11  -6.5967704799294348e+09  -9.9474438117273178e+09  -6.7051429158903557e+10  2.1226010034263506e+09  2.1626234716348732e+10  -4.4842129311088598e+08  1.2391097539455144e+09  -5.6202870819548570e+07  8.1737086189777568e+07  -2.5955225036921155e+07  1.4568953482246080e+06  5.5156315982968081e+05  4.9281412860554374e+04  -1.3003156783151702e+04  5.1903158503257055e+02  -1.1871064035826331e+11  -3.4676066586564459e+11  -2.4839897865954404e+12  -1.6602293492568414e+13  -8.9940427243866750e+13  -7.8977837041309938e+14  -1.7454909496154448e+15  8.7539463529639025e+14  -1.6009788135070803e+17  8.4874188794308250e+17  -2.3552933877841787e+18  4.8666358096654213e+19  -1.9497406658998672e+20  -1.6909198916752470e+21  1.1522038027427470e+22  -3.7199214172496611e+22  2.5290786238983896e+23  -2.1573167279800110e+24  1.9400260716234807e+24  -6.5992114217091583e+25  -1.4203641491739466e+27  -2.6232632133963338e+27  -4.1887221559440355e+28  6.2252487827496264e+27  7.5695700354526184e+29  -1.4598432262280459e+30  -5.2781461675839139e+30  -3.6102384633425113e+27  1.9119709877942394e+28  -2.7704920341550622e+28  -2.6373235256857856e+28  -4.5069530786148079e+29  5.2424947994060874e+29  -2.5256231123835861e+30  1.5553729627367659e+30  -1.2164598726266635e+28  -1.9743376511358973e+29  -6.4428891664009933e+28  1.0604457097120608e+28  9.9929116394060045e+26  1.4052571178395328e+25  8.9582076137557455e+24  4.4590142518763530e+23  2.1708300304915259e+22  -1.6040236384864237e+22  6.1022592269995685e+20  2.7558180481666633e+20  -8.3875051286774678e+19  4.9307200638121728e+18  -2.2991928651792719e+18  1.8526420403004781e+17  -7.8548046487901712e+16  -2.3247676681974440e+15  7.2631954077455012e+14  4.3322493485447788e+14  9.5580650047452754e+12  -2.6718786292985342e+12  4.3869902584429188e+13  -5.6441147139223273e+13  -7.2463677800560953e+13  -2.8898582947058938e+13  3.6332250485933383e+13  2.5646654324959512e+13  -2.1352170787575847e+12  -6.8744661831657166e+11  1.2323288912952211e+11  -3.0990699160636463e+10  5.0573444282351875e+09  7.3260592252517390e+08  -1.6229292313094440e+08  2.6142418033810794e+07  3.3270850449848676e+05  -1.1460649682170182e+05  -1.1824639626391463e+04  4.2104394761341304e+01  -1.0242622242593568e+02  3.1692279900351881e+01  2.2511757203818618e+01  2.2005078550454801e+01  2.1707184640399262e+01  2.1558751322352105e+01  2.1515410577798090e+01  2.1516241909042076e+01  2.6002119402850486e+01  1.8488246340661025e+01  -2.9711682354399418e+01  1.9486485155003899e+02  2.4447505510545020e+03  6.7371915901246457e+03  -5.6132799917217912e+04  -1.0006430878381478e+05  4.8733597542260963e+04  -2.3081498828736949e+05  -3.8723210342340390e+04  6.1566692976417025e+03  -4.5415664077456240e+03  1.6636471677511129e+03  6.9109311147249275e+02  -8.8636679477075376e+01  5.2966666621469344e+01  1.7210820768937371e+01  2.8166232290807606e+01  2.6313483472138458e+01  2.6382113062578462e+01  2.6753803804130794e+01  2.7072793771571408e+01  2.7345439561020807e+01  2.7551454402849021e+01  2.7682356671762395e+01  4.7761420461994998e+18  -8.8219280322492563e+19  -2.2024597781737664e+18  -8.0658115886119782e+18  -1.4389084968319341e+17  6.9365592004005512e+16  -1.0935065982476976e+16  7.1494834207446297e+13  2.5438243810167847e+14  8.0201606666310566e+12  3.3963221156859458e+12  4.4908619346648338e+10  -9.8453211029925049e+10  -2.4048818992357014e+10  -4.6909486878106880e+08  -3.1221354260716695e+08  -2.4110705799250197e+07  1.8862891414003611e+07  1.4008639305366527e+06  -2.4911615310838206e+04  1.5363900597733107e+04  1.0653848986198361e+03  -4.6307317294314714e+01  4.9348469761247209e+01  6.3023841955352061e+01  6.2279338724554782e+02  -4.0006171657781306e+03  1.8151706040127669e+04  -1.3776353703826264e+05  1.7900627864268635e+05  9.0186813949630817e+05  9.8269916857331112e+07  -2.6077845652573664e+07  -1.1412843037113529e+10  5.0056365163650177e+10  1.8195365645718341e+11  -4.8507596638824775e+12  -1.9101266494959152e+13  -8.5898511636517672e+13  -9.6850535163545859e+13  -6.3355322608046790e+15  -9.9181588369320240e+15  -9.4030136675867315e+17  1.3815174607356493e+18  -4.3890795079016825e+19  4.2386612683705139e+19  1.5177859778573088e+20  2.4058410733590548e+20  1.2145393922064628e+19  8.4617679610160126e+20  -1.3487464668504499e+21  -1.0762507518119689e+20  2.8438541019932767e+01  1.2160304153681028e+08  4.0385440376321392e+32  2.1833249099556557e+01  2.8771679084328166e+01  -3.6471393553704285e+05  7.7989298160775284e+29  2.1799156158223980e+01  2.8872813468567296e+16  -2.3586834318287432e+07  2.5826525786374805e+01  8.1343646957683150e+14  -1.4674966037938632e+24  -1.5972097115714028e+08  2.8011180440172645e+01  1.2078686720660306e+06  3.8809846810656950e+32  -4.1687511871905188e+11  -9.2610523254619789e+09  -4.9131488664522179e+21  1.4038509225740988e+01  9.6625191425750256e+09  -1.4425773874106466e+27  -5.9469590551432666e+04  2.7697361627782836e+01  1.1530897554730783e+14  -4.2410788312565666e+02  -6.8032892800288872e+10  7.3592488841074646e+03  -2.3316270779381567e+11  -4.2952631097795953e+19  2.6640644626959801e+01  -2.6631398537822124e+30  -1.3007589016611379e+12  8.2390116325807452e+22  4.7562425349210878e+05  2.6132061004852428e+16  -2.4869022935529165e+07  2.9248893182176186e+01  5.3413288202636150e+15  1.9614024227663375e+14  -9.2656305728655637e+21  -6.3065040538160736e+05  -1.2481730098653809e+05  -5.8641474370820016e+16  2.0894578246146676e+02  -1.8496538790311686e+01  2.6128804504280537e+08  2.8185137883897710e+01  -4.2783457612390672e+31  9.4394682289185405e+07  -6.2000345604784816e+23  3.6421807686784868e+12  5.6830943334670975e+14  -1.7383348352696171e+06  2.5956447164482913e+01  -1.8118088091637514e+09  -1.1578956394939081e+02  1.0972342302728658e+17  -7.8389671652467805e+03  1.2616895137756961e+18  -2.3028412265751705e+21  9.2760283615764308e+01  -1.7158793285032501e+05  -8.1318282455126943e+12  -1.0288374738888924e+15  2.9093293043544652e+01  5.3747139576386404e+08  4.0014581244455075e+08  -8.4102302255511204e+24  1.6525163636697612e+15  1.3250947063361963e+11  7.0968709971967316e+05  3.2102203774192283e+04  -3.1361048752621271e+21  8.0241802839367270e+19  3.0161048724265898e+12  -3.1081030425275977e+25  -2.9190774542065449e+12  2.3810456073368519e+20  1.7178300678509524e+03  1.7843804578868134e+04  -2.4384018756680371e+12  -3.4724215726150405e+12  2.0721988675224299e+09  -4.8916301797381481e+28  -6.4256033254267734e+28  1.3424939457268146e+16  2.7284450342867249e+01  2.7368327704343407e+01  1.5311451209821497e+11  -4.8811783115615981e+04  2.7161739071334910e+01  -6.9293171533159220e+03  -2.7769846508547840e+10  2.1071210897539752e+11  -3.9248121129902099e+30  2.7746950862393113e+01  3.2938748108039752e+07  -1.9775465316747580e+31  2.8508524761080750e+01  2.0593556148158708e+01  9.9526503173829120e+16  -1.5223049955772705e+26  2.1842369200286657e+07  -6.9531864359696104e+22  1.3126030345564760e+20  -1.4117343958699661e+11  2.6574213262473702e+01  -1.3762150038072052e+10  1.1725325163665360e+04  1.6943586100837405e+05  -2.2377328329676834e+03  2.7865753005031401e+01  -4.3694271696350728e+29  -5.2645033721887246e+06  2.5488447571168816e+01  1.3553501286280536e+17  -1.5884301784954415e+27  1.9439440814469499e+01  -1.1941197888462970e+08  1.2452723981308347e+12  -8.3186650621773984e+13  5.2949633458520029e+12  2.2048250374750562e+07  -1.1303686984548867e+21  -8.4151973070282929e+03  -8.2116718610063525e+22  2.9367809121685675e+14  -4.0133207472244456e+14  1.0301705819857831e+11  -5.8342871155787090e+12  -5.5991520548418234e+26  -4.9225184005414944e+09  -5.1061038280741572e+06  1.8781042378947127e+03  -2.1715741129518864e+10  2.6710920437598769e+01  2.5746857096688806e+14  -3.1045307759987881e+18  2.1101936555780999e+07  2.7997884859161839e+01  4.4262280603546143e+11  6.6109978762150373e+09  -8.2025811883620232e+00  1.9633708070287184e+17  1.8847821051875069e+01  1.3492269646376675e+08  -5.4577830145597234e+13  6.4231878890563441e+30  -1.1305992264422754e+05  -3.4651760211692315e+15  -2.2766232134582400e+16  -2.2474934747093124e+06  2.8229847326774941e+01  3.6430434924479656e+22  4.1875413368925260e+21  4.8756980884960536e+23  1.3446085923775740e+05  2.1524308405563069e+01  -1.4693060506440341e+08  1.6624156753021762e+01  -2.5622013340454339e+02  1.4348965221273467e+04  1.1893640799993702e+05  -6.6769005091681088e+17  -5.7180459867847744e+16  1.7209045197293357e+17  7.1493773347393550e+15  1.1045469359755892e+15  -4.8698111026283039e+33  2.4697079873392124e+01  -3.5482581426890992e+31  1.4665479935555696e+09  2.7818621651853277e+01  -6.8771999756338235e+04  2.8867890806005473e+01  5.0102193810921703e+06  3.3349381620222633e+06  2.8623788255640648e+01  4.6772351701612653e+28  2.1583224228279597e+01  6.4620948876433692e+30  2.1422823943084587e+01  2.2188302970598315e+01  4.0949158769650545e+01  -6.2159921290958580e+06  -2.5131109710405476e+07  3.6357963007920574e+02  4.6063522771714950e+15  -7.2876540064397419e+29  -9.3267326036595345e+08  2.5642295804906009e+01  -1.5813978368886854e+25  -5.4091267791309374e+22  -2.4595949183106765e+15  -6.6989074925565462e+31  -2.7533332887939395e+18  3.8975351170452487e+08  -3.1370797861861631e+07  2.3986561154434753e+01  2.7120376161511196e+01  3.9045620747222461e+11  3.2554465778834350e+07  -2.5829962269933953e+13  1.0338263870376036e+16  -4.1772524666921152e+17  -2.8243723000536341e+21  -9.8875132935795455e+20  9.3586143507543206e+30  2.8682895280364598e+01  2.7534025260889038e+01  -1.0072629900598569e+26  -1.3808806983046303e+09  2.4660733885235086e+01  -3.4282823113976892e+11  6.1906811285872316e+08  3.4023393546427961e+22  6.1795153228912952e+11  -5.2201708263448970e+15  2.3575548772954918e+05  -1.5398161724124280e+20  -4.5117723967203023e+13  2.8818063265307920e+01  4.4513435240068607e+05  3.3649553528500102e+29  2.1578337695318350e+01  1.8794566928190435e+12  2.4757135508397626e+21  2.1590132380420513e+07  3.0170725660137641e+01  1.2448762670432927e+01  1.6275398088589114e+08  -1.8101196458428502e+07  -2.1837829032329919e+11  2.8139166276795144e+01  2.7952705835227611e+01  2.8312313270498141e+01  -9.6737248202674789e+04  1.9613637503500900e+06  2.7504301711715467e+01  2.2845916500208575e+15  2.0741439100173097e+03  -1.8490812760017539e+04  4.3347072249583458e+10  5.2851650821121797e+12  -1.0161702427908147e+12  2.7603083067579555e+03  -9.8252426962979963e+19  2.0708648116873322e+32  2.8063250466957516e+21  -2.6608612116789548e+23  1.5273556208696945e+09  -1.2871628345673092e+15  2.1199610056031895e+15  -2.3979881091791885e+03  -5.3841158982130219e+03  -2.7062548750744318e+19  -2.3367268694558469e+18  9.7898114242804115e+02  6.6699426211557397e+02  8.7448875034451416e+12  -1.2989881326450202e+28  -4.9870754751615156e+13  1.5338417522684084e+10  9.5963650390344253e+02  -8.8581562273400269e+11  2.6209211336727726e+01  8.8070195959093451e+08  -3.7470072614924043e+07  1.5984414593512660e+06  1.0361218311026710e+02  4.8319694744074589e+01  -1.2680755762083296e+08  6.0776495688328817e+18  -9.8902800679495514e+17  5.7490174454033465e+01  1.0164899985489398e+06  2.0899710488320235e+02  2.6201588481599305e+01  4.9097561383295898e+09  -5.7723045445860282e+05  3.4109831815087693e+17  4.2216560765428813e+20  -1.6115919446244742e+21  4.3520544365581634e+04  1.9003059380946223e+04  2.6952618514115454e+01  -9.3623955493389402e+22  -6.0052505124173991e+23  -9.9929148728468388e+23  5.9510229792294167e+06  -2.1170084345152151e+22  3.6550367251605408e+16  -1.9821238078618210e+05  -6.1166679693127805e+13  -2.8730816126657144e+14  -1.8176846032804582e+15  3.2049029699316931e+08  1.0011036007172650e+08  1.3113027730830393e+12  -9.6563759711417676e+11  -2.9526198217894862e+31  2.7523107283568319e+01  -3.8792344175351160e+15  1.4747805372025958e+08  -1.0029293620851911e+28  1.0058446701048184e+28  -1.0984571354288253e+14  -3.1579168956043523e+13  1.6597992023815778e+11  -4.8690757010892016e+05  2.1292214980084223e+04  2.3304097958853432e+04  8.3431644543374157e+20  -1.4559271217168184e+20  8.1251491529871328e+12  4.2730251201988845e+09  3.5121398617546661e+06  -4.3037325629618483e+09  -8.9612435127647351e+11  1.3832056459009418e+22  -1.0901367651129469e+10  -3.8858236715332578e+02  2.0860416601981365e+10  9.8681601182946325e+27  6.8209619841765380e+03  2.8898389541669360e+01  2.1518605458237172e+01  -1.9209269289374258e+07  -2.7895369665258545e+11  -3.0811013080980674e+03  6.9851232681760242e+13  -8.4447028305444429e+21  3.4092303515476773e+13  -2.8712105292601074e+04  3.3754111480912279e+03  6.6859642630913228e+01  -5.1022931120480554e+11  -5.4061432308741403e+27  -2.9914491904491112e+28  -3.6254164244962969e+29  -5.6568159360992717e+27  7.4775964155258317e+18  1.4897451575196937e+03  -8.2163848712924437e+05  -5.3682002008606680e+13  -3.6463971542360859e+13  -2.5349727846258909e+14  -3.4595485509964599e+19  -4.3303694797750458e+22  -6.6534631928654402e+04  -4.7742034543103713e+05  2.6845691346366721e+01  5.1164934796925485e+02  -1.1471971114203564e+13  2.7422245682014786e+01  -2.1292966121649802e+07  -1.6977733137236493e+11  -3.8238729732823296e+17  2.7913230056263050e+01  -1.2766102637140677e+05  -1.3765964998610299e+25  -4.1496014891386440e+24  -4.4206966840350415e+30  -3.2941096803152633e+09  2.6750650592733031e+01  -2.3243551997335300e+09  -4.6001937774527230e+05  -7.6390588952976061e+04  -1.0456249295594704e+04  2.8284564512616998e+03  -1.7313624381439715e+19  2.8335438423906961e+01  1.0953102687502647e+29  -5.2191206500802515e+01  -9.2121157358682656e+12  1.2220522055593468e+01  9.1870498074097168e+08  -1.3637341508402401e+24  -2.8784294472078206e+14  3.8038712067742740e+03  4.7004737036931973e+18  2.5813061193759268e+01  -1.3753224345618870e+15  -8.5477779576767368e+31  -9.3044457729988721e+02  -1.1066216491013223e+12  6.6285908659231339e+01  -1.0774999218332944e+11  -2.7958449891451157e+04  -3.0898352466293269e+04  2.1571159762172496e+01  2.8874927062385765e+01  5.0613083027439922e+28  -5.5650900954039209e+07  -1.7960953972965028e+16  -8.1221477446902493e+28  1.8327940662316055e+12  4.7178812956528172e+03  1.6676288750374557e+11  -1.4332165576364993e+12  -3.6439142329866772e+19  2.7635518907670974e+01  -6.7828714371943075e+04  4.3817224134851585e+02  -7.2057687787111259e+08  -5.3885258745556670e+12  3.2327098389088470e+11  -7.5756487572980457e+11  -8.4131583009900126e+00  -1.8818179569742041e+11  -2.3021599417877945e+00  5.1415127655390074e+17  -2.9864602929179680e+08  3.3262278086969289e+01  6.5212006545606609e+06  -9.2320973225252466e+25  2.6175211627080440e+01  -4.6812834886788797e+13  -3.1378207768562060e+26  -6.7503088773936901e+24  -5.9801190606846583e+24  7.0988007725307375e+13  1.7161201144196709e+14  -1.2840075654687454e+31  1.5951359149645183e+06  2.6493817666613669e+01  -5.9402023075688457e+09  7.1530205950427240e+15  4.5725505576195724e+21  -8.1005839444343686e+07  -2.0273237672655373e+03  -2.4501185837692218e+32  1.0100716133677543e+02  3.1633064849360281e+08  2.2551722406928557e+03  1.0024894105921340e+13  -1.1330076766933840e+02  4.1751467170575971e+05  2.6789999935263154e+01  -1.2943489379979627e+09  -2.7180139575468610e+02  2.6083707962047026e+02  9.5993378449128510e+10  3.2104901493465452e+09  -2.1154005696860226e+10  4.0428628838809657e+30  2.8161299519789345e+01  -3.7310157445278411e+09  2.2767302609494688e+01  2.2250216231036600e+16  9.9687881877813625e+08  1.2971224994096445e+10  -3.3810862385855725e+11  7.5493482552514225e+07  2.9317309645062480e+01  5.5606446009586762e+01  -6.2324624364190906e+13  2.0111119348652608e+01  5.3070138409370265e+05  1.9255970872818003e+27  -3.9468723861178090e+06  -1.5515863701616462e+14  2.7233709983448215e+01  -8.3380677133949492e+12  2.6904368163291650e+01  2.7217734338901305e+01  9.7627349264006413e+29  2.1669853924705598e+30  2.7742457219066658e+01  2.7826110971861734e+01  -1.0605141176265430e+05  4.3077098170491570e+13  -1.5224585563196664e+18  -6.6657464466253272e+16  1.8953033031214925e+15  -2.0708843206755956e+16  -7.2395896885179355e+12  1.4777022726478466e+33  -3.3516986324042630e+17  7.6570614132067441e+12  -6.2380881174235107e+01  2.9852272479414351e+03  1.3588480655790538e+16  2.7501539837082472e+19  2.1866010567220716e+16  8.7126155639695078e+13  2.3452466656166278e+23  6.2063970929914078e+01  -4.5380295428245779e+04  -1.2294758426977213e+01  -6.1521179027209373e+05  -2.4524914141495463e+07  2.6271910287987446e+01  -3.9452265905842300e+31  2.8535000713710264e+01  2.8448879558900412e+01  2.8448649529414951e+01  -4.9822222937880041e+30  1.7535852866662404e+30  -4.8255991491276031e+26  -5.1908798792407192e+07  -4.4220344459564894e+25  4.6043463159710419e+05  7.9014398000579830e+23  1.1005555257338616e+08  -1.3267055430870026e+07  1.4542639376152053e+01  2.2272616749400232e+01  2.1150387059135330e+01  -7.1516092093187820e+15  2.8593716195170579e+01  2.2923369219731722e+01  1.9284905553373874e+06  -1.6503125602953161e+30  4.6555643136387847e+07  -2.7698375482679594e+13  5.2397778912114494e+10  2.4499787704352400e+01  -9.2556280523194492e+07  1.1416160034076565e+10  2.0922750972636429e+01  3.2788050382840647e+20  -2.9506787912350934e+25  -9.7402837672121095e+24  -7.1435162107884091e+26  2.7913208004032985e+01  1.1877667305912856e+16  2.7781664383466630e+01  -2.8621183285644293e+26  2.7176292216935185e+03  4.3214446351916733e+09  -3.0739345925952070e+06  -1.1061167124186629e+08  -2.2961139554091681e+32  -1.6917679579522738e+15  2.7639257227011811e+01  -5.9862006418177834e+24  -6.9121040768055682e+03  1.0987732582202436e+21  1.0299127771623780e+04  -3.2076786275481253e+09  -5.6326911754185179e+20  1.5134662506563198e+16  -3.6628275347841116e+18  -1.1177241859372941e+17  2.6334867860270691e+01  4.8238935981789746e+03  -5.1953700065284019e+10  -2.0651038261951196e+16  -6.5412503384928150e+14  -7.6028502249661788e+14  8.0536188905794525e+14  -3.3501546769210828e+16  3.4138571474548819e+05  1.9602919421748760e+04  1.7681600725115286e+11  6.4017833935967667e+10  2.6802717370509257e+01  -6.9230875941018103e+11  3.0771874783170134e+01  7.0604571522308171e+07  2.5494532460082829e+05  8.9596771934574645e+05  7.2672480373371567e+05  1.8027279306207061e+09  -2.4157568513618125e+13  -1.2642709174116701e+22  3.4300289316584911e+21  -1.9406975654789734e+23  -5.1837377697837775e+14  -1.8423770012819256e+30  1.3074004960503252e+09  2.2019853589712816e+13  2.7784544514614719e+01  2.8042090325588923e+01  2.6880257351971842e+01  -2.6200555181471692e+11  3.6795925113386429e+10  -4.0847307359524590e+10  9.9141507806944384e+16  -4.1051719054427128e+19  2.6493986220529397e+01  -1.3424713648719737e+04  5.2492687147204614e+29  1.0107519439213410e+08  -6.3424405742714191e+06  2.6951628495336284e+12  2.6588180548826156e+01  -1.1778591517062703e+20  -1.6902444847662136e+05  2.1202726834329556e+21  1.5105576380288996e+04  2.6146323481985598e+13  1.1608938204159396e+13  1.5