<?xml version="1.0"?>
<VTKFile type="UnstructuredGrid"  version="0.1"  >
<UnstructuredGrid>
<Piece  NumberOfPoints="2331" NumberOfCells="4248">
<Points>
<DataArray  type="Float64"  NumberOfComponents="3"  format="ascii">0 0.3 0  0 0 0  0.04999999999999999 0 0  0.0514582251803892 0.02410733605106462 0  0.0558116365147896 0.04786313285751154 0  0.06299675146291706 0.07092097740850717 0  0.07290879486935808 0.09294463440875382 0  0.08540322682126872 0.1136129493462312 0  0.1002978503657798 0.132624531648159 0  0.117375468351841 0.1497021496342203 0  0.1363870506537689 0.1645967731787313 0  0.1570553655912463 0.177091205130642 0  0.1790790225914929 0.187003248537083 0  0.2021368671424885 0.1941883634852104 0  0.2258926639489354 0.1985417748196108 0  0.25 0.2 0  0.2741073360510646 0.1985417748196108 0  0.2978631328575116 0.1941883634852104 0  0.3209209774085071 0.187003248537083 0  0.3429446344087537 0.177091205130642 0  0.3636129493462312 0.1645967731787313 0  0.3826245316481591 0.1497021496342202 0  0.3997021496342202 0.132624531648159 0  0.4145967731787313 0.1136129493462312 0  0.427091205130642 0.09294463440875371 0  0.4370032485370829 0.07092097740850713 0  0.4441883634852104 0.04786313285751155 0  0.4485417748196108 0.02410733605106461 0  0.45 0 0  0.55 0 0  0.5514582251803892 0.02410733605106462 0  0.5558116365147896 0.04786313285751154 0  0.5629967514629171 0.07092097740850717 0  0.5729087948693581 0.09294463440875382 0  0.5854032268212688 0.1136129493462312 0  0.6002978503657798 0.132624531648159 0  0.617375468351841 0.1497021496342203 0  0.6363870506537689 0.1645967731787313 0  0.6570553655912463 0.177091205130642 0  0.6790790225914929 0.187003248537083 0  0.7021368671424885 0.1941883634852104 0  0.7258926639489354 0.1985417748196108 0  0.75 0.2 0  0.7741073360510646 0.1985417748196108 0  0.7978631328575116 0.1941883634852104 0  0.8209209774085071 0.187003248537083 0  0.8429446344087537 0.177091205130642 0  0.8636129493462312 0.1645967731787313 0  0.8826245316481591 0.1497021496342202 0  0.8997021496342202 0.132624531648159 0  0.9145967731787312 0.1136129493462312 0  0.927091205130642 0.09294463440875371 0  0.9370032485370829 0.07092097740850713 0  0.9441883634852104 0.04786313285751155 0  0.9485417748196108 0.02410733605106461 0  0.95 0 0  1 0 0  1 0.3 0  0.9758926639489353 0.3014582251803892 0  0.9521368671424885 0.3058116365147896 0  0.9290790225914928 0.3129967514629171 0  0.9070553655912461 0.3229087948693581 0  0.8863870506537688 0.3354032268212687 0  0.867375468351841 0.3502978503657798 0  0.8502978503657798 0.367375468351841 0  0.8354032268212687 0.3863870506537689 0  0.822908794869358 0.4070553655912464 0  0.8129967514629171 0.4290790225914929 0  0.8058116365147896 0.4521368671424885 0  0.8014582251803892 0.4758926639489354 0  0.8 0.4999999999999999 0  0.8014582251803892 0.5241073360510646 0  0.8058116365147896 0.5478631328575115 0  0.8129967514629171 0.5709209774085071 0  0.8229087948693581 0.5929446344087538 0  0.8354032268212688 0.6136129493462312 0  0.8502978503657798 0.632624531648159 0  0.867375468351841 0.6497021496342202 0  0.8863870506537689 0.6645967731787313 0  0.9070553655912463 0.677091205130642 0  0.9290790225914929 0.6870032485370829 0  0.9521368671424885 0.6941883634852104 0  0.9758926639489354 0.6985417748196108 0  1 0.7 0  1 1 0  0.95 1 0  0.9485417748196108 0.9758926639489353 0  0.9441883634852104 0.9521368671424885 0  0.9370032485370829 0.9290790225914928 0  0.927091205130642 0.9070553655912463 0  0.9145967731787312 0.8863870506537688 0  0.8997021496342201 0.8673754683518409 0  0.882624531648159 0.8502978503657798 0  0.863612949346231 0.8354032268212686 0  0.8429446344087537 0.822908794869358 0  0.8209209774085071 0.8129967514629171 0  0.7978631328575114 0.8058116365147896 0  0.7741073360510646 0.8014582251803892 0  0.75 0.8 0  0.7258926639489353 0.8014582251803892 0  0.7021368671424885 0.8058116365147896 0  0.6790790225914928 0.8129967514629171 0  0.6570553655912461 0.8229087948693581 0  0.6363870506537688 0.8354032268212688 0  0.617375468351841 0.8502978503657798 0  0.6002978503657798 0.867375468351841 0  0.5854032268212687 0.8863870506537689 0  0.572908794869358 0.9070553655912463 0  0.5629967514629171 0.9290790225914929 0  0.5558116365147896 0.9521368671424885 0  0.5514582251803892 0.9758926639489355 0  0.55 0.9999999999999999 0  0.45 0.9999999999999999 0  0.4485417748196108 0.9758926639489353 0  0.4441883634852104 0.9521368671424885 0  0.4370032485370829 0.9290790225914928 0  0.427091205130642 0.9070553655912463 0  0.4145967731787313 0.8863870506537688 0  0.3997021496342201 0.8673754683518409 0  0.382624531648159 0.8502978503657798 0  0.363612949346231 0.8354032268212686 0  0.3429446344087536 0.822908794869358 0  0.3209209774085071 0.8129967514629171 0  0.2978631328575115 0.8058116365147896 0  0.2741073360510646 0.8014582251803892 0  0.25 0.8 0  0.2258926639489353 0.8014582251803892 0  0.2021368671424885 0.8058116365147896 0  0.1790790225914928 0.8129967514629171 0  0.1570553655912462 0.8229087948693581 0  0.1363870506537688 0.8354032268212688 0  0.117375468351841 0.8502978503657798 0  0.1002978503657797 0.867375468351841 0  0.08540322682126869 0.8863870506537689 0  0.07290879486935797 0.9070553655912463 0  0.06299675146291703 0.9290790225914929 0  0.05581163651478957 0.9521368671424885 0  0.0514582251803892 0.9758926639489355 0  0.04999999999999999 0.9999999999999999 0  0 1 0  -0 0.7000000000000001 0  0.0241073360510646 0.6985417748196108 0  0.04786313285751161 0.6941883634852104 0  0.07092097740850711 0.6870032485370829 0  0.09294463440875372 0.677091205130642 0  0.1136129493462312 0.6645967731787312 0  0.1326245316481591 0.6497021496342202 0  0.1497021496342202 0.632624531648159 0  0.1645967731787313 0.6136129493462312 0  0.177091205130642 0.5929446344087537 0  0.187003248537083 0.5709209774085071 0  0.1941883634852104 0.5478631328575115 0  0.1985417748196108 0.5241073360510646 0  0.2 0.5 0  0.1985417748196108 0.4758926639489353 0  0.1941883634852104 0.4521368671424885 0  0.1870032485370829 0.4290790225914928 0  0.177091205130642 0.4070553655912463 0  0.1645967731787313 0.3863870506537688 0  0.1497021496342202 0.3673754683518409 0  0.132624531648159 0.3502978503657798 0  0.113612949346231 0.3354032268212686 0  0.09294463440875361 0.322908794869358 0  0.07092097740850711 0.3129967514629171 0  0.04786313285751148 0.3058116365147896 0  0.02410733605106464 0.3014582251803892 0  0.6985417748196108 0.5241073360510646 0  0.7 0.5 0  0.6985417748196108 0.4758926639489353 0  0.6941883634852104 0.4521368671424885 0  0.6870032485370829 0.4290790225914928 0  0.677091205130642 0.4070553655912463 0  0.6645967731787312 0.3863870506537688 0  0.6497021496342201 0.3673754683518409 0  0.632624531648159 0.3502978503657798 0  0.613612949346231 0.3354032268212686 0  0.5929446344087537 0.322908794869358 0  0.5709209774085071 0.3129967514629171 0  0.5478631328575114 0.3058116365147896 0  0.5241073360510646 0.3014582251803892 0  0.4999999999999999 0.3 0  0.4758926639489353 0.3014582251803892 0  0.4521368671424885 0.3058116365147896 0  0.4290790225914928 0.3129967514629171 0  0.4070553655912462 0.3229087948693581 0  0.3863870506537688 0.3354032268212687 0  0.367375468351841 0.3502978503657798 0  0.3502978503657798 0.367375468351841 0  0.3354032268212687 0.3863870506537689 0  0.322908794869358 0.4070553655912464 0  0.3129967514629171 0.4290790225914929 0  0.3058116365147896 0.4521368671424885 0  0.3014582251803892 0.4758926639489354 0  0.3 0.4999999999999999 0  0.3014582251803892 0.5241073360510646 0  0.3058116365147896 0.5478631328575115 0  0.3129967514629171 0.5709209774085071 0  0.3229087948693581 0.5929446344087538 0  0.3354032268212687 0.6136129493462312 0  0.3502978503657798 0.632624531648159 0  0.367375468351841 0.6497021496342202 0  0.3863870506537689 0.6645967731787313 0  0.4070553655912463 0.677091205130642 0  0.4290790225914929 0.6870032485370829 0  0.4521368671424885 0.6941883634852104 0  0.4758926639489354 0.6985417748196108 0  0.4999999999999999 0.7 0  0.5241073360510646 0.6985417748196108 0  0.5478631328575116 0.6941883634852104 0  0.5709209774085071 0.6870032485370829 0  0.5929446344087537 0.677091205130642 0  0.6136129493462312 0.6645967731787312 0  0.6326245316481591 0.6497021496342202 0  0.6497021496342202 0.632624531648159 0  0.6645967731787312 0.6136129493462312 0  0.677091205130642 0.5929446344087537 0  0.6870032485370829 0.5709209774085071 0  0.6941883634852104 0.5478631328575115 0  0 0.15 0  1 0.15 0  1 0.85 0  0 0.8500000000000001 0  0 0.075 0  1 0.075 0  1 0.925 0  0 0.925 0  0.5 0.8127595604293815 0  0.5069440078039168 0.190422209288238 0  0.25 0.3127595604293815 0  0.756944007803917 0.3095777907117619 0  0.756944007803917 0.6904222092882382 0  0.25 0.6872404395706185 0  0 0.225 0  0.4255768646051012 0.2241073097134061 0  1 0.7749999999999999 0  0.6773391559270888 0.2766774022734219 0  1 0.225 0  0.6755768646051011 0.7241073097134062 0  0 0.7750000000000001 0  0.5818971135297744 0.2287925518358889 0  0.8318971135297746 0.728792551835889 0  0.1659156081861886 0.7301636995921477 0  0.08376842746533225 0.2299656297760495 0  0.4236002201977974 0.7746535834185855 0  0.0840843918138115 0.7698363004078523 0  0.3340843918138113 0.7301636995921477 0  0.3340843918138114 0.2698363004078523 0  0.9159156081861887 0.2301636995921477 0  0.5840843918138116 0.7698363004078522 0  0.1659156081861887 0.2698363004078523 0  0.9162315725346678 0.7700343702239506 0  0.8340843918138114 0.2698363004078523 0  0.75 0.6146645247768686 0  0.5 0.1125158665330878 0  0.75 0.3874841334669124 0  0.2504983345544904 0.6122915843562002 0  0.2504983345544902 0.3877084156437999 0  0.5 0.8879783056303169 0  0.7005361650220154 0.3333055947145943 0  0.70416808765371 0.6599554817221275 0  0.449930214263529 0.1678187287522426 0  0.2247310981387008 0.7415600637745463 0  0.5155081196221678 0.7563797802146907 0  0.2752689018612993 0.2584399362254537 0  0.05605196690611226 0.8246131191226815 0  0.9439480330938878 0.1
[...]
<PointData  Scalars="Temperature"> 
<DataArray  type="Float64"  Name="Temperature"  format="ascii">2.8833246737394415e+01  2.9988927889094064e+01  2.9981905339827875e+01  2.9959077507452243e+01  2.9893389462338543e+01  2.9789362822130141e+01  2.9636980885427782e+01  2.9485152788596139e+01  2.9694583427078815e+01  2.8549977715386337e+01  -2.9588628815219895e+01  -6.7837639062082019e+02  -5.4679725967319200e+03  -3.6048762650913057e+04  1.8402033786763711e+05  7.7097100248570100e+05  -7.1689317893907079e+05  1.3291817114633942e+07  -1.9219056640645534e+07  -4.4487548848164394e+07  9.6123505329503453e+08  2.6288901862919197e+09  1.5677671650028136e+09  4.8375725049570007e+09  -2.6360412494012928e+09  -6.4111372095616567e+08  -3.1490790787254292e+08  8.0552013996548533e+07  -6.4727052472575180e+07  -1.5783807800294914e+09  2.8910264520783925e+09  -5.2746854614046602e+09  9.9797705010143585e+10  -5.8644175116622778e+11  -6.4688437732298271e+12  4.3576099026301509e+12  1.7231885923234128e+14  2.5400978200194491e+14  1.0481867565063941e+15  -2.6796481661751895e+15  3.9387518134284040e+16  -3.2259931702696716e+16  8.2409329999933475e+14  1.2426719731456000e+15  8.3763158864011280e+15  -2.6516327173406334e+14  -2.7016303077432915e+15  5.6018471438004695e+13  -1.5479423295240209e+14  7.0210758230894434e+12  -1.0210900699270332e+13  3.2424265200783789e+12  -1.8199831824553873e+11  -6.8900828104577377e+10  -6.1539097398263149e+09  1.6269120675824170e+09  -6.2330637263333581e+07  1.4829778202457980e+16  4.3318642271932456e+16  3.1030931578896653e+17  2.0740207395265364e+18  1.1235695327815504e+19  9.8662074646343926e+19  2.1805327268635699e+20  -1.0935757940223261e+20  2.0000027491614729e+22  -1.0602801829064661e+23  2.9423207920729724e+23  -6.0795838872951239e+24  2.4356891290831622e+25  2.1123605155986428e+26  -1.4393761826440358e+27  4.6470652818111538e+27  -3.1594198236527296e+28  2.6950009271643468e+29  -2.4235532937455348e+29  8.2439822903113963e+30  1.7743721398382695e+32  3.2770787435180685e+32  5.2327087383562034e+33  -7.7768141431175985e+32  -9.4561906460910148e+34  1.8236908828324941e+35  6.5936580525506353e+35  4.5100452241441094e+32  -2.3885058313350034e+33  3.4610025055247772e+33  3.2946434127040184e+33  5.6302547363669535e+34  -6.5491210269726149e+34  3.1551030691328926e+35  -1.9430302107687442e+35  1.5196472738876262e+33  2.4664166050985275e+34  8.0486986689831519e+33  -1.3247485331268145e+33  -1.2483519820702057e+32  -1.7554998699833659e+30  -1.1190928764274650e+30  -5.5703677569393793e+28  -2.7118822512301159e+27  2.0038064586659449e+27  -7.6231709796084144e+25  -3.4426712121495299e+25  1.0477985826192018e+25  -6.1596403398790978e+23  2.8722379162144082e+23  -2.3143898860824566e+22  9.8125164175616985e+21  2.9041869188583581e+20  -9.0734559762013651e+19  -5.4120082877060710e+19  -1.1940293103715796e+18  3.3378109435176582e+17  -5.4803926844017121e+18  7.0508396795730360e+18  9.0524342728832573e+18  3.6101193128484040e+18  -4.5387609281268506e+18  -3.2038761989803192e+18  2.6673932169404470e+17  8.5878408569685216e+16  -1.5394714466150286e+16  3.8714743156082220e+15  -6.3178242152211175e+14  -9.1519875374809844e+13  2.0274243116047668e+13  -3.2658060721427285e+12  -4.1560399788929878e+10  1.4319867754638210e+10  1.4799682195768838e+09  -2.4788054601102150e+06  1.5563723132540608e+07  -1.2065821138138543e+06  -7.6849691301314961e+04  -3.0496004045934591e+04  -8.3223717530450267e+03  -3.6648208596907097e+02  6.1948882593734947e+02  6.3689216528851125e+02  -3.8317320518166886e+05  5.5585707784301601e+05  6.5786269247995373e+06  -2.1473878864579525e+07  -3.0253451177777010e+08  -8.3875758923774362e+08  7.0152037982518845e+09  1.2503301312711779e+10  -6.0850795848272095e+09  2.8837191776393799e+10  4.8403850204126835e+09  -7.6615578128929842e+08  5.7033396900619590e+08  -2.0481530384953946e+08  -8.3287894749653608e+07  1.4154034324651718e+07  -3.4974190050094407e+06  1.0107366073892604e+06  -3.1336179830585554e+05  -3.5804306555981522e+04  1.7869507181687025e+03  -6.0430003345555895e+02  -1.9867657364518874e+02  3.1906662254450502e+01  2.3388447284184018e+01  2.7944069214337482e+01  -5.9665356856658116e+23  1.1020683202392133e+25  2.7513953177280009e+23  1.0076114196729860e+24  1.7975384340980509e+22  -8.6654097814899403e+21  1.3660494344274085e+21  -8.9314026993564836e+18  -3.1778407762137620e+19  -1.0019085353664951e+18  -4.2428129036182618e+17  -5.6101530734581420e+15  1.2299144192655914e+16  3.0042686222375820e+15  5.8601092279052578e+13  3.9002888959151406e+13  3.0120026258363501e+12  -2.3564201905034922e+12  -1.7499822008119232e+11  3.1150401743680797e+09  -1.9163005396686699e+09  -1.3005571433370520e+08  8.8326756746404227e+06  -3.1135808651082758e+06  -4.8282571498549432e+06  -7.4770643125927508e+07  5.0278209025432676e+08  -2.2645953372092638e+09  1.7212891739116795e+10  -2.2359213030538486e+10  -1.1266185937650543e+11  -1.2276243539759840e+13  3.2577450569628872e+12  1.4257351379059905e+15  -6.2532287780197330e+15  -2.2730332845164420e+16  6.0597508108665818e+17  2.3862018147973806e+18  1.0730764078359222e+19  1.2098931912820500e+19  7.9145843980617515e+20  1.2390135817619571e+21  1.1746597161008082e+23  -1.7258434004090333e+23  5.4830026531471164e+24  -5.2950945496492594e+24  -1.8960751402472760e+25  -3.0054668557563804e+25  -1.5172481377544212e+24  -1.0570757740213942e+26  1.6849046463729437e+26  1.3444927841960631e+25  2.9461321014988304e+01  -1.5191105287646580e+13  -5.0451006032868004e+37  4.0833055204477350e+04  2.9840762773495708e+01  4.5563941267043663e+10  -9.7427154819768950e+34  -8.2417450800618280e+03  -3.6069000929914955e+21  2.9465585588391304e+12  -5.5042547455134816e+04  -1.0161753308015457e+20  1.8332517689871767e+29  1.9952945276731117e+13  2.9002945107201928e+01  -1.5088857006860062e+11  -4.8482715486919378e+37  5.2077602558049776e+16  1.1569253755876845e+15  6.1376897414517454e+26  1.0746745150331014e+06  -1.2070781101387155e+15  1.8021217497433865e+32  7.4319977680347071e+09  3.1453780038343087e+01  -1.4404829480058989e+19  5.5808048215866819e+07  8.4989240038456900e+15  -9.1628794527166939e+08  2.9127559508943464e+16  5.3658036917507640e+24  4.4004227095271144e+03  3.3268941375296685e+35  1.6249567810708515e+17  -1.0292482184344654e+28  -5.9413948186695724e+10  -3.2645150210620816e+21  3.1067344540821650e+12  -5.4334562759155373e+05  -6.6725881907839133e+20  -2.4502574329206616e+19  1.1574973049050735e+27  7.8786089750900085e+10  1.5595442398849663e+10  7.3257128056306543e+21  -2.2940561655981455e+07  5.0990195351821762e+06  -3.2641079555312602e+13  2.9215690096986251e+01  5.3446699057792620e+36  -1.1792134745987986e+13  7.7453155914597458e+28  -4.5499487493540352e+17  -7.0995344815207809e+19  2.1716216572834460e+11  4.7797058323848769e+03  2.2633795108891791e+14  1.7543558559476506e+07  -1.3707061320897020e+22  9.8209388472737038e+08  -1.5761498371186449e+23  2.8767955860350011e+26  -8.5298427497674264e+06  2.1438357273011375e+10  1.0158584679298927e+18  1.2852623400497434e+20  -3.8348668453177600e+05  -6.7142938793405133e+13  -4.9987712169633109e+13  1.0506374869094284e+30  -2.0643853887946428e+20  -1.6553579802493092e+16  -8.8653807410246246e+10  -4.0073114435298390e+09  3.9177397722354125e+26  -1.0024106810311498e+25  -3.7678312702690547e+17  3.8827588330886050e+30  3.6466209822478272e+17  -2.9744914301025471e+25  -2.1177563270458189e+08  -2.2261100020920248e+09  3.0461430306228531e+17  4.3378791979810739e+17  -2.5886684775550362e+14  6.1108077913451178e+33  8.0271045484499236e+33  -1.6770937625992430e+21  1.7870904258292754e+01  -5.7134432119778334e+05  -1.9127638823763492e+16  6.1005657030107880e+09  -5.1733811064844315e+02  8.6848792246847177e+08  3.4691133282046845e+15  -2.6322946539736604e+16  4.9030224195955292e+35  2.8432006411629516e+01  -4.1148293789490112e+12  2.4704252589578431e+36  2.9545089098554641e+01  1.8252251906663363e+05  -1.2433223867968810e+22  1.9017204665858738e+31  -2.7286278722669067e+12  8.6861811474621063e+27  -1.6397529158552058e+25  1.7635915287844204e+16  -3.5304246359688955e+02  1.7192193749600812e+15  -1.4617478961918483e+09  -2.1163696984466282e+10  2.8234312217406440e+08  2.3418447694958854e+01  5.4584522154842079e+34  6.5766438436749988e+11  -4.4893907873451781e+03  -1.6931541882146675e+22  1.9843265238986772e+32  6.8382116341716540e+05  1.4917394871441457e+13  -1.5556409608064902e+17  1.0391988234539428e+19  -6.6146667020363648e+17  -2.7543472096081401e+12  1.4120989518427817e+26  1.0542105370094558e+09  1.0258328316817527e+28  -3.6687368055515415e+19  5.0135907233731977e+19  -1.2869277083883678e+16  7.2884101726712870e+17  6.9946706403477486e+31  6.1493945414071462e+14  6.3787643365595789e+11  -2.3153083241055480e+08  2.7128117896593190e+15  -1.6225587557742079e+04  -3.2163939048537186e+19  3.8782962238285263e+23  -2.6361301693270132e+12  2.9124772128056787e+01  -5.5294100171924512e+16  -8.2587063459901500e+14  3.8435705937703545e+06  -2.4527164123296305e+22  4.4394433453367744e+05  -1.6855046511769727e+13  6.8180671357785180e+18  -8.0240870947893623e+35  1.4126732176047152e+10  4.3288277834766411e+20  2.8440430612239200e+21  2.8076813590301849e+11  2.9238157669878767e+01  -4.5510264962532064e+27  -5.2312336149321123e+26  -6.0909048257247956e+28  -1.6794428559576447e+10  4.3896933589374827e+05  1.8355124818991102e+13  9.9249193909736921e+05  3.4864778673627466e+07  -1.7896841299980562e+09  -1.4855185636180256e+10  8.3410344106685448e+22  7.1431973970658365e+21  -2.1498184369869903e+22  -8.9312701727443373e+20  -1.3798414381823092e+20  6.0835505822954488e+38  -2.3164827182642423e+05  4.4326170841494345e+36  -1.8320667044108728e+14  2.8805377842797967e+01  8.5937648836652946e+09  2.9950678404033656e+01  -6.2589287698678601e+11  -4.1661046679315717e+11  2.9672277497555999e+01  -5.8429775084315211e+33  -8.8289450196845138e+01  -8.0726911759172331e+35  6.3750827878891883e+04  -4.3089011182057802e+04  -2.0511806077320375e+06  7.7652794074617188e+11  3.1394752606242681e+12  -4.2312877383633852e+07  -5.7544279413466497e+20  9.1040105745613250e+34  1.1651304272310948e+14  4.0238754735023766e+04  1.9755414591446078e+30  6.7572839425191279e+27  3.0726181739213940e+20  8.3685263592854115e+36  3.4395671575958214e+23  -4.8689466965405695e+13  3.9189605230430962e+12  1.6622588739545783e+05  2.2580891429568322e+02  -4.8777253124183784e+16  -4.0668231273487686e+12  3.2267757146317460e+18  -1.2914946773727141e+21  5.2183803725825060e+22  3.5283117534758004e+26  1.2351852256064991e+26  -1.1691131870039497e+36  2.9739736124815028e+01  -6.9368035782031967e+01  1.2583106860954168e+31  1.7250479607766231e+14  1.4990132092810131e+05  4.2827387784610048e+16  -7.7336306605423406e+13  -4.2503298641158235e+27  -7.7196821904168672e+16  6.5212330829737021e+20  -2.9448495688124146e+10  1.9235960851236752e+25  5.6362752092070932e+18  2.9894121585713936e+01  -5.5605342594059731e+10  -4.2036283676753783e+34  9.6802954023694037e+03  -2.3478877551734438e+17  -3.0927541739102081e+26  -2.6971174062469170e+12  -1.0001984883011904e+06  1.2281007236459767e+06  -2.0331834889220953e+13  2.2612718277387085e+12  2.7280634656882048e+16  2.9212917783755614e+01  2.8474455555843782e+01  2.9327163894097882e+01  1.2087699528920254e+10  -2.4501801884321100e+11  2.3786455472913893e+01  -2.8539975308878778e+20  -2.5624188869144174e+08  2.3127411882062397e+09  -5.4150787565372060e+15  -6.6024263436689280e+17  1.2694379601355507e+17  -3.4182747015809101e+08  1.2274061491624949e+25  -2.5870019525390208e+37  -3.5057664480501166e+26  3.3240475723956181e+28  -1.9080298700187112e+14  1.6079720643609569e+20  -2.6483347584303966e+20  3.0239837980254191e+08  6.7541490379499519e+08  3.3807550383655072e+24  2.9191268013806858e+23  -1.1927580724756773e+08  -8.0265321782819495e+07  -1.0924441285793002e+18  1.6227446700103877e+33  6.2300416323146947e+18  -1.9161326128862075e+15  -1.1677254619391875e+08  1.1065940822044227e+17  8.2675301564078909e+03  -1.1002058749058561e+14  4.6809047111653418e+12  -1.9968047821265646e+11  -9.7951560458891932e+06  -2.8436700687633371e+06  1.5841278257777537e+13  -7.5924276720930195e+23  1.2355308614325092e+23  -4.0592464140408374e+06  -1.2698089254203622e+11  -2.3052706926653240e+07  -2.4653167674102060e+03  -6.1334513905667625e+14  7.2112678815845383e+10  -4.2611280566648910e+22  -5.2738510265505541e+25  2.0132610704040278e+26  -5.4337752214598780e+09  -2.3709488287833443e+09  -3.3336907172375294e+02  1.1695855485055857e+28  7.5019840568208952e+28  1.2483523860037537e+29  -7.4342117884834753e+11  2.6446462959453347e+27  -4.5660088921438531e+21  2.4764359391978401e+10  7.6411709206441349e+18  3.5891612527399113e+19  2.2707197453199530e+20  -4.0036846497253344e+13  -1.2506158651506875e+13  -1.6381285804543475e+17  1.2063106848573947e+17  3.6885233651978720e+36  1.4417457345612360e+02  4.8460850538780551e+20  -1.8423508581067688e+13  1.2528969555762806e+33  -1.2565388676395178e+33  1.3722338310533603e+19  3.9449881657089792e+18  -2.0734833836697588e+16  6.0829121112493462e+10  -2.6569244693496809e+09  -2.9082225949188681e+09  -1.0422593793623181e+26  1.8187987382754410e+25  -1.0150240906486943e+18  -5.3380231345128650e+14  -4.3874687995094110e+11  5.3763840768340138e+14  1.1194721323374456e+17  -1.7279523446019174e+27  1.3618397150665338e+15  5.1349043541521296e+07  -2.6059614378942090e+15  -1.2327675544013425e+33  -8.4959129147758698e+08  2.9985989175644569e+01  2.3782805439207939e+02  2.3996967631241968e+12  3.4847941492397188e+16  3.8792311248966163e+08  -8.7260778354565222e+18  1.0549439339514330e+27  -4.2589383557672530e+18  3.5896253793551297e+09  -4.1882871624802732e+08  -5.2654259180644061e+06  6.3739758236881864e+16  6.7535567821935757e+32  3.7370304681103305e+33  4.5290061021883024e+34  7.0667065224401534e+32  -9.3412937522957949e+23  -1.8305101584617269e+08  1.0264507250922816e+11  6.7061569267463199e+18  4.5552160162790216e+18  3.1667830301861057e+19  4.3217977367818160e+24  5.4096598851691981e+27  8.3147144021594610e+09  5.9644069749823586e+10  4.2528600659589881e+02  -6.0855278622302465e+07  1.4331216361626918e+18  7.0392287104691690e+01  2.6599999917615288e+12  2.1209220676036264e+16  4.7769254624024938e+22  2.8937555848735151e+01  1.5950787964139208e+10  1.7196959516141317e+30  5.1838377348802510e+29  5.5225000147948585e+35  4.1151253259086131e+14  -4.4310704151000537e+04  2.9036716752435069e+14  5.7470163346519691e+10  9.5458323995172939e+09  1.3090613878141623e+09  -3.5031608700554037e+08  2.1628828607028509e+24  2.9342906400585640e+01  -1.3683026472327801e+34  9.6096944614456333e+06  1.1508120308608195e+18  1.2867788607739436e+06  -1.1476806760006691e+14  1.7036278230510163e+29  3.5958419681222939e+19  -4.7215940830310607e+08  -5.8720079556543594e+23  4.7433303293836866e+02  1.7181043414714791e+20  1.0678204652268943e+37  1.1909905847473255e+08  1.3824332476192706e+17  -5.2391063292537527e+06  1.3460532944658210e+16  3.4954933448900814e+09  3.8624470510636840e+09  -9.0745195378340009e+02  2.9959158737884465e+01  -6.3227760632679969e+33  6.9521219420419346e+12  2.2437496998978176e+21  1.0146491434756468e+34  -2.2895950528163107e+17  -5.8652432052481031e+08  -2.0832645042515536e+16  1.7904278503085430e+17  4.5521142579753108e+24  2.8987487238922260e+01  8.4762922778651810e+09  -5.1895118071337558e+07  9.0017167589589016e+13  6.7315485202903027e+17  -4.0384223139507120e+16  9.4637844135627856e+16  3.9123379962866027e+06  2.3508375351498144e+16  3.1204857825643644e+06  -6.4229704847879563e+22  3.7307984268002398e+13  -9.6134209406677063e+05  -8.1464995747118115e+11  1.1533082055676510e+31  -6.3608745749122099e+04  5.8480348196763126e+18  3.9198833408301360e+31  8.4327388960895640e+29  7.4705889052224733e+29  -8.8680880352850145e+18  -2.1438415785225867e+19  1.6040303839225436e+36  -1.9926756847085873e+11  -1.8315927951443366e+04  7.4207234282222788e+14  -8.9358214700889093e+20  -5.7122015661692761e+26  1.0119555997595598e+13  2.5607111253428170e+08  3.0607799815761809e+37  -9.4721196561806183e+06  -3.9517207621151141e+13  -2.7891533977828497e+08  -1.2523473516762900e+18  1.6989372239346374e+07  -5.2154729715177345e+10  1.4270162489392012e+03  1.6169492393069775e+14  3.6739439029013507e+07  -2.9742346469082907e+07  -1.1991852680345326e+16  -4.0106646199698944e+14  2.6426376934384690e+15  -5.0504958679199011e+35  2.9196380298402570e+01  4.6609247578846325e+14  3.2233748888704908e+05  -2.7795804201823408e+21  -1.2453383622013008e+14  -1.6204140483130185e+15  4.2237796750934624e+16  -9.4309259886413535e+12  -5.7969915141651547e+05  -3.7338160589908771e+06  7.7858257096996321e+18  2.2874422834917757e+05  -6.6294694896768539e+10  -2.4055280656116528e+32  4.9306096192771448e+11  1.9382998573775245e+19  5.4883995119009221e+01  1.0416226753803306e+18  4.5138015174923121e+03  3.6263089403890228e+02  -1.2195974442262461e+35  -2.7070793852917595e+35  2.8636928532833700e+01  2.9803179715697343e+01  1.3251324951431107e+10  -5.3813525850546094e+18  1.9019123004217533e+23  8.3271003376116931e+21  -2.3676839348261641e+20  2.5870263238984944e+21  9.0439668268688550e+17  -1.8460010730958877e+38  4.1870675755445466e+22  -9.5654881549133363e+17  1.0874074254346468e+07  -3.6989009634166461e+08  -1.6975239421797838e+21  -3.4355954505012855e+24  -2.7315840084002362e+21  -1.0884125969256806e+19  -2.9297700501233337e+28  -4.6941578627660749e+06  5.6719387768275251e+09  4.3375756506933449e+06  7.6857466789192505e+10  3.0637470892110708e+12  -1.3513311830095487e+05  4.9285249502763089e+36  2.9571210636651617e+01  2.9471192594498461e+01  2.9452293045578458e+01  6.2239788562108502e+35  -2.1906444761369605e+35  6.0283193526244460e+31  6.4846445212545244e+12  5.5241711971353341e+30  -5.7516296219026772e+10  -9.8707747967209192e+28  -1.3748549677014330e+13  1.6573728086806006e+12  9.5591701914736209e+05  -2.8500316016986424e+04  1.2218050413184737e+05  8.9340583141345028e+20  2.9646265266340805e+01  -1.2042367426290025e+05  -2.4091175932956927e+11  2.0616323150061120e+35  -5.8159027091394834e+12  3.4601848972227497e+18  -6.5457269606895330e+15  6.7084683159987573e+04  1.1562480385010395e+13  -1.4261495043027912e+15  2.4809700196817733e+05  -4.0960061652331268e+25  3.6860985570665964e+30  1.2167927612585440e+30  8.9239482369909394e+31  -2.1285676651807179e+05  -1.4838027252473662e+21  2.2405510427878223e+01  3.5754655072635576e+31  -3.3670501992467612e+08  -5.3985106095585856e+14  3.8401033625472870e+11  1.3818027372703299e+13  2.8683916267115865e+37  2.1134199517830870e+20  2.8203971887363021e+01  7.4781862443520758e+29  8.6599470555870271e+08  -1.3726287434945363e+26  -1.2835559236039622e+09  4.0071524141262988e+14  7.0365689670413497e+25  -1.8906787750957068e+21  4.5757414635769489e+23  1.3963029528054229e+22  -3.0375371192412308e+03  -5.9962010410851586e+08  6.4902509718691780e+15  2.5798051135021195e+21  8.1715751323910947e+19  9.4977655063943414e+19  -1.0060882621284028e+20  4.1851388084772458e+21  -4.2644388871529869e+10  -2.4459951423590908e+09  -2.2088518447013712e+16  -7.9973477941673390e+15  -4.9018024258798553e+05  8.6485805461479904e+16  -6.9852573434556904e+05  -8.8201849148203633e+12  -3.1845883831218750e+10  -1.1192481364635995e+11  -9.0782313956945465e+10  -2.2520352837865581e+14  3.0178540173493780e+18  1.5793746233088735e+27  -4.2849207217132209e+26  2.4243921490418690e+28  6.4757195429646295e+19  2.3015664145385782e+35  -1.6332536845801094e+14  -2.7508026554732534e+18  1.6232964408971966e+01  2.8578572538936797e+01  4.3547877130796400e+02  3.2730715706264140e+16  -4.5966848979923970e+15  5.1027987609500300e+15  -1.2385128803519013e+22  5.1283346334111764e+24  -3.0211582428178085e+03  1.6800728698089817e+09  -6.5575832559147163e+34  -1.2626689332000367e+13  7.9232434711725269e+11  -3.3668984642318195e+17  -5.6821616214103662e+04  1.4714258063022899e+25  2.1118093817973991e+10  -2.6487241180591226e+26  -1.8840952098379490e+09  -3.2662967431681674e+18  -1.4502320784783690e+18  -1.