<?xml version="1.0"?>
<VTKFile type="UnstructuredGrid"  version="0.1"  >
<UnstructuredGrid>
<Piece  NumberOfPoints="2331" NumberOfCells="4248">
<Points>
<DataArray  type="Float64"  NumberOfComponents="3"  format="ascii">0 0.3 0  0 0 0  0.04999999999999999 0 0  0.0514582251803892 0.02410733605106462 0  0.0558116365147896 0.04786313285751154 0  0.06299675146291706 0.07092097740850717 0  0.07290879486935808 0.09294463440875382 0  0.08540322682126872 0.1136129493462312 0  0.1002978503657798 0.132624531648159 0  0.117375468351841 0.1497021496342203 0  0.1363870506537689 0.1645967731787313 0  0.1570553655912463 0.177091205130642 0  0.1790790225914929 0.187003248537083 0  0.2021368671424885 0.1941883634852104 0  0.2258926639489354 0.1985417748196108 0  0.25 0.2 0  0.2741073360510646 0.1985417748196108 0  0.2978631328575116 0.1941883634852104 0  0.3209209774085071 0.187003248537083 0  0.3429446344087537 0.177091205130642 0  0.3636129493462312 0.1645967731787313 0  0.3826245316481591 0.1497021496342202 0  0.3997021496342202 0.132624531648159 0  0.4145967731787313 0.1136129493462312 0  0.427091205130642 0.09294463440875371 0  0.4370032485370829 0.07092097740850713 0  0.4441883634852104 0.04786313285751155 0  0.4485417748196108 0.02410733605106461 0  0.45 0 0  0.55 0 0  0.5514582251803892 0.02410733605106462 0  0.5558116365147896 0.04786313285751154 0  0.5629967514629171 0.07092097740850717 0  0.5729087948693581 0.09294463440875382 0  0.5854032268212688 0.1136129493462312 0  0.6002978503657798 0.132624531648159 0  0.617375468351841 0.1497021496342203 0  0.6363870506537689 0.1645967731787313 0  0.6570553655912463 0.177091205130642 0  0.6790790225914929 0.187003248537083 0  0.7021368671424885 0.1941883634852104 0  0.7258926639489354 0.1985417748196108 0  0.75 0.2 0  0.7741073360510646 0.1985417748196108 0  0.7978631328575116 0.1941883634852104 0  0.8209209774085071 0.187003248537083 0  0.8429446344087537 0.177091205130642 0  0.8636129493462312 0.1645967731787313 0  0.8826245316481591 0.1497021496342202 0  0.8997021496342202 0.132624531648159 0  0.9145967731787312 0.1136129493462312 0  0.927091205130642 0.09294463440875371 0  0.9370032485370829 0.07092097740850713 0  0.9441883634852104 0.04786313285751155 0  0.9485417748196108 0.02410733605106461 0  0.95 0 0  1 0 0  1 0.3 0  0.9758926639489353 0.3014582251803892 0  0.9521368671424885 0.3058116365147896 0  0.9290790225914928 0.3129967514629171 0  0.9070553655912461 0.3229087948693581 0  0.8863870506537688 0.3354032268212687 0  0.867375468351841 0.3502978503657798 0  0.8502978503657798 0.367375468351841 0  0.8354032268212687 0.3863870506537689 0  0.822908794869358 0.4070553655912464 0  0.8129967514629171 0.4290790225914929 0  0.8058116365147896 0.4521368671424885 0  0.8014582251803892 0.4758926639489354 0  0.8 0.4999999999999999 0  0.8014582251803892 0.5241073360510646 0  0.8058116365147896 0.5478631328575115 0  0.8129967514629171 0.5709209774085071 0  0.8229087948693581 0.5929446344087538 0  0.8354032268212688 0.6136129493462312 0  0.8502978503657798 0.632624531648159 0  0.867375468351841 0.6497021496342202 0  0.8863870506537689 0.6645967731787313 0  0.9070553655912463 0.677091205130642 0  0.9290790225914929 0.6870032485370829 0  0.9521368671424885 0.6941883634852104 0  0.9758926639489354 0.6985417748196108 0  1 0.7 0  1 1 0  0.95 1 0  0.9485417748196108 0.9758926639489353 0  0.9441883634852104 0.9521368671424885 0  0.9370032485370829 0.9290790225914928 0  0.927091205130642 0.9070553655912463 0  0.9145967731787312 0.8863870506537688 0  0.8997021496342201 0.8673754683518409 0  0.882624531648159 0.8502978503657798 0  0.863612949346231 0.8354032268212686 0  0.8429446344087537 0.822908794869358 0  0.8209209774085071 0.8129967514629171 0  0.7978631328575114 0.8058116365147896 0  0.7741073360510646 0.8014582251803892 0  0.75 0.8 0  0.7258926639489353 0.8014582251803892 0  0.7021368671424885 0.8058116365147896 0  0.6790790225914928 0.8129967514629171 0  0.6570553655912461 0.8229087948693581 0  0.6363870506537688 0.8354032268212688 0  0.617375468351841 0.8502978503657798 0  0.6002978503657798 0.867375468351841 0  0.5854032268212687 0.8863870506537689 0  0.572908794869358 0.9070553655912463 0  0.5629967514629171 0.9290790225914929 0  0.5558116365147896 0.9521368671424885 0  0.5514582251803892 0.9758926639489355 0  0.55 0.9999999999999999 0  0.45 0.9999999999999999 0  0.4485417748196108 0.9758926639489353 0  0.4441883634852104 0.9521368671424885 0  0.4370032485370829 0.9290790225914928 0  0.427091205130642 0.9070553655912463 0  0.4145967731787313 0.8863870506537688 0  0.3997021496342201 0.8673754683518409 0  0.382624531648159 0.8502978503657798 0  0.363612949346231 0.8354032268212686 0  0.3429446344087536 0.822908794869358 0  0.3209209774085071 0.8129967514629171 0  0.2978631328575115 0.8058116365147896 0  0.2741073360510646 0.8014582251803892 0  0.25 0.8 0  0.2258926639489353 0.8014582251803892 0  0.2021368671424885 0.8058116365147896 0  0.1790790225914928 0.8129967514629171 0  0.1570553655912462 0.8229087948693581 0  0.1363870506537688 0.8354032268212688 0  0.117375468351841 0.8502978503657798 0  0.1002978503657797 0.867375468351841 0  0.08540322682126869 0.8863870506537689 0  0.07290879486935797 0.9070553655912463 0  0.06299675146291703 0.9290790225914929 0  0.05581163651478957 0.9521368671424885 0  0.0514582251803892 0.9758926639489355 0  0.04999999999999999 0.9999999999999999 0  0 1 0  -0 0.7000000000000001 0  0.0241073360510646 0.6985417748196108 0  0.04786313285751161 0.6941883634852104 0  0.07092097740850711 0.6870032485370829 0  0.09294463440875372 0.677091205130642 0  0.1136129493462312 0.6645967731787312 0  0.1326245316481591 0.6497021496342202 0  0.1497021496342202 0.632624531648159 0  0.1645967731787313 0.6136129493462312 0  0.177091205130642 0.5929446344087537 0  0.187003248537083 0.5709209774085071 0  0.1941883634852104 0.5478631328575115 0  0.1985417748196108 0.5241073360510646 0  0.2 0.5 0  0.1985417748196108 0.4758926639489353 0  0.1941883634852104 0.4521368671424885 0  0.1870032485370829 0.4290790225914928 0  0.177091205130642 0.4070553655912463 0  0.1645967731787313 0.3863870506537688 0  0.1497021496342202 0.3673754683518409 0  0.132624531648159 0.3502978503657798 0  0.113612949346231 0.3354032268212686 0  0.09294463440875361 0.322908794869358 0  0.07092097740850711 0.3129967514629171 0  0.04786313285751148 0.3058116365147896 0  0.02410733605106464 0.3014582251803892 0  0.6985417748196108 0.5241073360510646 0  0.7 0.5 0  0.6985417748196108 0.4758926639489353 0  0.6941883634852104 0.4521368671424885 0  0.6870032485370829 0.4290790225914928 0  0.677091205130642 0.4070553655912463 0  0.6645967731787312 0.3863870506537688 0  0.6497021496342201 0.3673754683518409 0  0.632624531648159 0.3502978503657798 0  0.613612949346231 0.3354032268212686 0  0.5929446344087537 0.322908794869358 0  0.5709209774085071 0.3129967514629171 0  0.5478631328575114 0.3058116365147896 0  0.5241073360510646 0.3014582251803892 0  0.4999999999999999 0.3 0  0.4758926639489353 0.3014582251803892 0  0.4521368671424885 0.3058116365147896 0  0.4290790225914928 0.3129967514629171 0  0.4070553655912462 0.3229087948693581 0  0.3863870506537688 0.3354032268212687 0  0.367375468351841 0.3502978503657798 0  0.3502978503657798 0.367375468351841 0  0.3354032268212687 0.3863870506537689 0  0.322908794869358 0.4070553655912464 0  0.3129967514629171 0.4290790225914929 0  0.3058116365147896 0.4521368671424885 0  0.3014582251803892 0.4758926639489354 0  0.3 0.4999999999999999 0  0.3014582251803892 0.5241073360510646 0  0.3058116365147896 0.5478631328575115 0  0.3129967514629171 0.5709209774085071 0  0.3229087948693581 0.5929446344087538 0  0.3354032268212687 0.6136129493462312 0  0.3502978503657798 0.632624531648159 0  0.367375468351841 0.6497021496342202 0  0.3863870506537689 0.6645967731787313 0  0.4070553655912463 0.677091205130642 0  0.4290790225914929 0.6870032485370829 0  0.4521368671424885 0.6941883634852104 0  0.4758926639489354 0.6985417748196108 0  0.4999999999999999 0.7 0  0.5241073360510646 0.6985417748196108 0  0.5478631328575116 0.6941883634852104 0  0.5709209774085071 0.6870032485370829 0  0.5929446344087537 0.677091205130642 0  0.6136129493462312 0.6645967731787312 0  0.6326245316481591 0.6497021496342202 0  0.6497021496342202 0.632624531648159 0  0.6645967731787312 0.6136129493462312 0  0.677091205130642 0.5929446344087537 0  0.6870032485370829 0.5709209774085071 0  0.6941883634852104 0.5478631328575115 0  0 0.15 0  1 0.15 0  1 0.85 0  0 0.8500000000000001 0  0 0.075 0  1 0.075 0  1 0.925 0  0 0.925 0  0.5 0.8127595604293815 0  0.5069440078039168 0.190422209288238 0  0.25 0.3127595604293815 0  0.756944007803917 0.3095777907117619 0  0.756944007803917 0.6904222092882382 0  0.25 0.6872404395706185 0  0 0.225 0  0.4255768646051012 0.2241073097134061 0  1 0.7749999999999999 0  0.6773391559270888 0.2766774022734219 0  1 0.225 0  0.6755768646051011 0.7241073097134062 0  0 0.7750000000000001 0  0.5818971135297744 0.2287925518358889 0  0.8318971135297746 0.728792551835889 0  0.1659156081861886 0.7301636995921477 0  0.08376842746533225 0.2299656297760495 0  0.4236002201977974 0.7746535834185855 0  0.0840843918138115 0.7698363004078523 0  0.3340843918138113 0.7301636995921477 0  0.3340843918138114 0.2698363004078523 0  0.9159156081861887 0.2301636995921477 0  0.5840843918138116 0.7698363004078522 0  0.1659156081861887 0.2698363004078523 0  0.9162315725346678 0.7700343702239506 0  0.8340843918138114 0.2698363004078523 0  0.75 0.6146645247768686 0  0.5 0.1125158665330878 0  0.75 0.3874841334669124 0  0.2504983345544904 0.6122915843562002 0  0.2504983345544902 0.3877084156437999 0  0.5 0.8879783056303169 0  0.7005361650220154 0.3333055947145943 0  0.70416808765371 0.6599554817221275 0  0.449930214263529 0.1678187287522426 0  0.2247310981387008 0.7415600637745463 0  0.5155081196221678 0.7563797802146907 0  0.2752689018612993 0.2584399362254537 0  0.05605196690611226 0.8246131191226815 0  0.9439480330938878 0.1
[...]
<PointData  Scalars="Temperature"> 
<DataArray  type="Float64"  Name="Temperature"  format="ascii">-2.4277683481820484e+82  4.2914562357643468e+83  7.6843089742994675e+82  -9.9983580077253848e+82  9.2191393476828300e+82  -4.0676992383015580e+83  5.4315062814996094e+83  -7.2316362582582256e+83  -6.6630089345083161e+83  -1.1637844651054607e+84  3.1758926285677859e+84  4.4519409977773198e+85  8.0734787385022704e+85  7.4569078976776933e+84  1.7224041898613659e+85  5.0903324666212226e+84  -9.5667902015733275e+84  4.0533613320074490e+85  -1.3316114857670183e+86  3.2520360602494251e+86  -6.5923976442396970e+87  -3.9070082842606190e+87  6.3039631458594458e+86  -1.8377068579474380e+86  -1.6196908663347543e+86  -1.0147655054915936e+86  -1.5030031998173138e+85  9.2700961923306528e+84  -9.8036875084744454e+84  -4.4867231361347405e+83  1.8767365615112310e+83  2.1298512927345553e+83  -1.5643426568027179e+83  -1.0439217787764206e+83  1.1693430456928748e+85  -1.3540328731110967e+85  -1.5457426173457017e+86  -3.9441509987669598e+86  -1.6781511100257764e+86  -6.6069406408824634e+85  -7.5703110923628328e+85  -4.0237826030131557e+84  1.9116887636625971e+84  2.1450319118911226e+83  -1.4571739211593380e+83  1.1053948196518558e+83  -5.2321155090853939e+83  2.8727223689245619e+84  2.8814732065514186e+85  1.0496434025896065e+86  6.7186559933004424e+86  -1.0663530029960133e+87  2.3545184385894633e+86  1.1008235156931003e+86  2.4728369852979981e+85  -9.5054024887114722e+84  5.5079667723740894e+84  -2.0160374957863936e+85  -2.4180345562671385e+85  -3.4756059171326406e+85  -6.9656956932300890e+85  -3.7594157363470003e+85  -2.2609916841026898e+85  -1.3277884387048113e+84  -4.7618766308783312e+83  -4.9847782733023727e+82  8.1692618069616914e+81  -4.7193612650850854e+81  -1.1034238228471914e+82  -3.8418147712191507e+81  -3.9320213072617255e+82  -1.3114580278441037e+83  -3.8952499504159072e+83  -4.6379575057284222e+82  -5.6957854602510651e+83  -5.2732172228042219e+84  -1.1746452806670343e+86  -1.1219456229244355e+87  -1.2052256515098651e+84  3.0695033616085626e+85  -1.4834908088025839e+84  -1.4090752159859295e+86  2.7129707783665524e+86  9.8048014348432434e+86  6.6102096078983177e+83  -3.5496646189176266e+84  5.1447357599607811e+84  4.8666727516599683e+84  8.3875889571116175e+85  -9.7693765940701753e+85  4.6973991889877341e+86  -2.8899340933610954e+86  2.2652421342653849e+84  3.6674509868175763e+85  1.1977404680661631e+85  -1.9869622672086061e+84  -3.0856929905284069e+83  -6.2257005859289591e+81  -1.6804272238171191e+82  2.7273680894072557e+82  -3.1599618852859701e+82  2.3126961406357512e+82  -7.4869388671859390e+82  1.4950320966151366e+84  -3.8674074624335743e+84  -4.9889349632173887e+84  -2.0415741208432053e+86  1.7178286406160276e+86  -5.7953256396756349e+85  -1.1865772008586749e+84  -4.8903740478325186e+83  -1.4725140115735899e+85  5.1255022658763963e+83  -5.0122493832762465e+83  -6.1766179823656997e+83  -1.5007525957485069e+84  1.4820940523559348e+84  -3.1349935470215093e+83  2.4899305566212561e+83  2.0648847213016117e+83  1.4424788459582178e+83  1.6100572565881204e+83  -3.3556466213092720e+83  1.9909186554062565e+84  -5.2115258201855991e+84  -2.7606152042436214e+85  7.0759269649145584e+85  -1.1366833630324062e+87  -6.4688270818261009e+85  1.1866064539219067e+85  -2.5130703662631801e+84  -3.1227785035135336e+83  8.0490600640087688e+82  -4.1938890058543264e+82  2.6567313598468708e+82  -3.5026997014726249e+82  4.0621423852607232e+82  -3.0067697406628062e+82  4.6919477173870984e+82  -4.8067821230885024e+82  4.4296830293314430e+82  -6.8710508453819782e+83  -4.0468579255987650e+84  1.7485038892388788e+84  -3.6732268778913245e+86  1.3432683964692057e+87  -9.1780029552182767e+87  -4.2896633343340485e+87  9.4134915081985893e+86  4.8884939943444373e+85  1.7376886972470656e+84  8.3461224854177126e+83  2.3958462927416139e+85  -1.0073607158202044e+86  -2.5431157648823589e+86  1.1905856553818845e+85  -7.8185032820346834e+84  7.9525354160868673e+84  -1.2083785417161283e+85  -6.3425500691790285e+84  9.1388454987231047e+82  4.4731924749902966e+84  5.2812122857921875e+85  -3.1330268314262919e+84  2.3916201601963789e+84  2.6678765502161320e+83  -6.4766943477054962e+84  2.5106239161594340e+84  -4.8187808220999981e+83  6.6578500995148613e+83  1.2089686359305010e+83  -7.2418842545190900e+82  1.0940860865952489e+83  1.2249847473458838e+83  -2.4852780304894569e+84  -3.3512921359359938e+83  -1.4758146699999781e+83  3.1288914896672023e+82  5.1698977648998956e+82  6.8489006322795888e+83  2.0147198758051851e+84  1.3417556061771265e+84  -1.5297940580895197e+84  -1.4843925728394818e+86  -1.6297824994147585e+85  1.0944861374224178e+84  -4.7546014192639833e+83  -1.0178223757830731e+83  -8.5866590409684784e+82  -8.3291627561642427e+83  1.2549309210973439e+84  -2.2988559206804047e+84  4.0271271358322698e+83  7.3922216462916316e+83  -5.3998696145126350e+84  -1.5278815598520691e+84  8.2110530883614520e+84  -5.7942608167457422e+84  -5.8066701873444534e+84  -1.2888674565968279e+84  1.1059672876795550e+85  5.3602928273667892e+85  -5.3958990497613142e+86  -1.2421459750162662e+87  -1.0041013178417396e+87  4.6409318018441574e+85  4.1934572345906381e+85  -1.2434898699206052e+84  7.2382337991741600e+83  1.9982160695273452e+83  1.2015392796545665e+85  -3.8991389813505839e+85  -4.6557377272710239e+85  2.0380876040736214e+85  -4.8458227224001709e+85  2.2496417378400792e+86  7.3429634013442985e+86  5.6530601397256612e+85  -3.5454329069947659e+83  -3.8427702445463539e+84  -7.5027637529888834e+88  1.6844633433639349e+82  -2.6198150033829023e+82  -2.7129317938133342e+85  -1.4490606976696200e+86  2.8381804656603047e+80  -1.1686838115401853e+84  -2.1133845499958343e+84  -7.0353581211580635e+82  -1.0956521661908308e+84  -4.3009784746542118e+83  -3.4788874773502838e+84  -9.3627475576355967e+81  1.6261167373213584e+85  -7.2099605697619298e+88  -7.9210435520649434e+83  -3.5402788888228740e+83  9.3416405613796085e+82  1.0223774595447914e+82  2.9840919657018242e+83  2.7154985460171282e+84  3.6569621527918906e+85  5.5414670455273279e+82  -6.4112341200013567e+84  6.3619300634531271e+83  1.1962370825116772e+84  1.7715727346259949e+84  2.3016165543034438e+80  1.1686902286303047e+82  2.6266872229290100e+83  4.9464096685125155e+86  -1.9389467042693215e+83  4.1226806315039900e+84  -2.1399269950398001e+82  5.5101909832476575e+81  -1.6780061247096435e+85  -1.5773598874512460e+85  -1.2921814461328993e+83  -2.0344448020974774e+83  -2.9229978762679409e+84  2.3528204804939440e+85  -1.5687828911664723e+85  -5.8830639641024676e+83  -2.8119893086442932e+83  7.2706710507345865e+82  -3.3826669107618882e+84  1.6124962225485041e+81  7.9480935435653216e+87  -5.6281320506219418e+83  2.2353068984448609e+82  1.1295009817598237e+85  -1.5947305919855900e+83  -5.6551564313410801e+86  -2.5505296529345907e+83  7.3163189403138119e+83  -1.7478191701011228e+83  6.0191164429094044e+83  -2.6809608545418324e+83  1.9626662286505675e+82  1.1764892597068940e+84  -1.6871687302554369e+84  -4.6058037929148560e+85  -4.8443487570851890e+83  -1.1843507546227620e+84  -2.4866262623986386e+83  1.1042589794630008e+83  -1.7945006652975363e+84  -2.9069375956961904e+83  -3.7616613099663586e+83  2.5427694990911371e+84  -6.3529828693786074e+84  -1.4888048201792307e+86  1.8343460142018681e+83  -1.5053927687517755e+84  2.1227027751028426e+83  -1.6912665494705651e+83  1.7677117207972656e+84  -8.8921295244079189e+83  3.2695836037422506e+84  1.4384366205451287e+85  1.9358732152847084e+84  1.6873516176183425e+85  4.2827029772953699e+83  8.9743469077437056e+84  7.8887398850473252e+84  -7.5122941624391732e+84  -1.6402422966242904e+84  2.8616932947933053e+83  -7.5680282335561687e+84  -4.7532065689006296e+83  8.3014693574097132e+84  4.4947542516036545e+85  -5.1599787963989313e+84  2.2810683492233574e+82  7.2903702990065248e+86  1.6867575571124322e+83  -9.8820980264187425e+85  3.6740404062238091e+87  -3.7522465596824861e+83  -3.9984759844320198e+82  -6.6626436575833838e+81  -9.3434308205498161e+84  -1.3990853552700774e+84  -1.6088183455015445e+83  9.7470211641267146e+83  -5.0609220567662073e+84  -1.6052769613895525e+84  1.8308026631884265e+84  -5.8663636690680307e+83  2.6397011636591591e+86  2.5317922061721115e+83  -4.2062863769530574e+83  8.1156002128574363e+85  -1.5096689444732027e+86  1.9283244090582101e+84  6.2795614067440605e+84  -3.9785225392014342e+85  -7.8311880549955644e+83  -3.6043562074140654e+84  -2.0303903196583851e+84  1.8300747594893631e+83  4.4194958137072058e+83  4.6065141744212526e+84  4.8161431051142525e+84  -5.6108109712693722e+86  8.0510908614585921e+82  1.0661584646661050e+84  6.8901340338220537e+85  3.3016736299272141e+82  3.3569907202530961e+84  1.9431041944182719e+83  -2.3552159687029583e+85  2.2957858652498850e+85  -1.0593145404349154e+85  -5.6138612682448711e+83  3.5311184214119330e+84  -7.5125536483824567e+83  -1.0881095918142856e+82  9.9990054320174573e+84  -5.1073297659737801e+81  9.7130847063535139e+82  9.1168709372284358e+82  3.8077769393561861e+82  -4.5409721479542992e+83  -1.7858057232647239e+83  8.0923395325448462e+83  1.9346941049518407e+84  -1.1933471394764945e+87  1.5437213793185746e+85  1.1197876818971992e+83  -3.3493270129901222e+82  -3.7749215922236557e+84  -3.3084162008325896e+82  -8.3857886145210758e+83  -8.9799814591032472e+85  7.1631100574805973e+83  -2.0796884005487162e+85  9.3890900708034129e+83  -9.2860088999335739e+83  -2.8081269813291600e+83  -1.1104222664284443e+85  -1.3941281974400292e+85  2.2854753424959756e+84  6.6020717030693880e+81  8.5119254599697891e+81  5.8210696112267259e+85  -2.3154698489566800e+84  1.7248194994609064e+84  9.0470562271678840e+89  9.1211472886399758e+82  6.5919742948466060e+87  3.4516587028760564e+84  -2.7987216108365634e+82  -1.5173313592488607e+85  9.4968631016056328e+82  1.5489538796720924e+85  -4.0329700081369398e+85  1.2457169572388980e+83  -8.6926645473921241e+84  -2.2674685642594915e+82  -1.2006326993686167e+87  1.0279334229214699e+82  -7.7116221185297587e+81  -1.0300036312739059e+85  -3.9005376288133438e+85  2.3416439662088342e+84  1.2791702871723118e+83  6.1393834051181514e+83  1.3627906559426737e+86  -5.8396796278996932e+84  -2.5975799184316526e+83  2.7791307771340081e+82  -5.2057055391430877e+83  -6.3670957971811993e+85  1.2443940962863574e+88  -1.7173385597639928e+83  -2.2759568418379149e+82  -1.8535805456584163e+85  -1.4291882059241893e+84  1.7083015912921325e+84  -2.6576568933107554e+83  -1.7010462707022821e+83  1.5282668379145306e+85  -7.2079097401934774e+82  -1.0821999907915045e+84  -2.2284829307883080e+84  -4.8632742153625396e+84  -1.7387106505702850e+87  6.7626776529429217e+82  5.6039149850288049e+83  -4.4294784682657527e+85  2.3467733331527243e+83  -5.5557135790748746e+82  -9.7745530162686448e+83  1.2205328958583827e+83  -1.2435539833502204e+85  -5.4399059856245321e+84  -1.4319794665324007e+83  -3.1931980763145391e+85  -1.4696449990673933e+84  -8.9949029238984177e+85  -8.5603416348307327e+82  4.5786698182194350e+85  -6.2503069484899657e+85  -3.1148873208933904e+82  5.1725669626885976e+83  -4.8965764036773636e+85  1.8807822148878006e+84  1.6470641103581003e+82  -1.8853365821307406e+83  -2.0744167799832885e+85  -2.0724007791613672e+82  3.1998572357061318e+83  -1.0653196032105642e+83  -8.4596856335317629e+82  -2.6141594446272518e+83  1.8247834086434113e+86  6.0967316128074186e+85  1.3691076293261415e+84  -1.0066705109656645e+84  -7.5983985636099504e+84  2.1414247894457502e+84  3.2643237087095329e+83  -3.2329752441537076e+82  2.8721494779264849e+84  -8.6780121048502212e+86  -4.1914066763201470e+84  -3.8472617175922540e+88  -1.4131735790476915e+85  -1.0243639040887845e+84  9.4486251674101227e+84  -1.8912881643774775e+84  -4.4972343535293364e+83  -1.5236965878280017e+84  -2.0708850863802931e+83  6.9440957255317570e+81  8.7127087826867732e+82  5.4714374576388322e+84  -2.4785601737886365e+85  -3.4424938933377129e+84  -2.8399695052657230e+85  -7.2917725692535462e+82  -1.1162370518348636e+85  6.5737721459164032e+81  -1.1486094185231947e+85  3.8218498393349204e+83  2.3551643558839397e+83  -4.9921146342834062e+85  1.5183055732457773e+85  -3.9391132984188578e+84  -8.0890495230534448e+82  6.4196669554485322e+83  -3.6705702154549300e+83  7.0404135167638612e+84  3.9160001713221130e+82  9.4877997283095726e+85  -1.1932604529979940e+83  -1.6804015838349117e+84  1.5992378243866579e+84  -6.3735298414216854e+86  -1.9575167891978062e+84  -4.0029582811743756e+84  -2.2383800786469775e+83  5.6692643685759956e+84  -1.3760651937770545e+85  -1.7330197819582717e+84  -1.3914174540037716e+82  1.7873496835097289e+82  -6.9715573520733142e+82  -8.4722905586582466e+84  -4.9735979406620983e+82  -2.1580665687053697e+84  -4.6748157381421772e+84  -5.9893023298627923e+82  -8.3236861114890452e+83  -1.9404205294666776e+84  -4.3831947627227627e+83  1.6834725879461062e+84  2.1527826948618883e+84  1.1358595952213771e+84  5.4849607620918347e+87  1.6301074496042795e+84  6.6611647161632666e+82  -2.6207369789923605e+84  1.8579757373730693e+84  -1.8836918081062225e+84  -5.0870849482031364e+83  -4.2818334285640069e+83  -5.2224692443741036e+82  -2.0629441332923016e+85  -1.9474612125711563e+84  3.0691177646419564e+84  1.7372945888694363e+83  2.7046655216322121e+83  -4.1170972000436101e+85  4.7955060644603392e+84  -4.5666239375888162e+83  -4.1312335507717946e+84  -4.6094984073491861e+83  -2.2150978678370410e+85  7.1561549438867931e+83  6.8946659680266151e+82  -1.0111703173913008e+82  -1.8291785793991468e+84  -1.7450696227168197e+84  1.0496314044006292e+82  4.1499510331621343e+82  -1.0573650164438894e+85  2.2861367968454192e+82  -3.0929439738379602e+84  -7.7782479222995859e+82  1.4585523126791564e+83  -1.5659522587034511e+84  8.5366252648514209e+83  1.4346333657922143e+84  -1.5393239740584253e+85  3.7148129954597194e+82  -3.7760061983299925e+84  4.7624606720071710e+84  6.6384417681648234e+85  1.1290031146802622e+84  -5.2796226232676991e+83  8.7670085613238555e+85  -3.5929700934865319e+85  -4.3920582506361425e+83  -5.3499274506795028e+83  -1.2673446637313333e+84  2.1459466046314512e+83  -1.5376275590694947e+84  1.2643171275509243e+84  -1.6435029620024640e+85  5.1466398766563857e+82  -2.4936484869382978e+83  3.1186829875492551e+84  -1.0409296464424718e+83  1.4743460895693250e+83  4.2393847424310173e+84  2.5155973620865635e+82  1.3273796242812748e+82  5.2255038108331442e+85  -1.1102972814643923e+84  -7.8491043822778256e+83  8.2125398236492455e+86  -1.9474006360556187e+84  7.0102852454305038e+83  -4.0543082242736327e+83  8.8876448125129588e+84  1.4768261587186297e+85  -6.6134906161638487e+83  4.6152010001684899e+85  1.2185562872670793e+83  -1.6989750543711080e+82  -2.0447034352688866e+85  -6.0168826171198209e+84  5.9873609259159713e+82  -1.1648115057565675e+83  -1.7488264380174662e+83  4.3532476259965779e+83  4.4771676949629082e+83  -9.1292737137485435e+82  1.3729458365707554e+85  -3.5322128809254730e+84  1.8716459931405186e+82  1.5879380308039168e+88  -2.9081559966948139e+85  -8.3410710157254574e+81  -7.0813649222588677e+84  -1.8594121802919426e+83  4.3094497522771003e+84  -2.6054786128570238e+85  -1.1489474217787675e+82  -1.4913898516468905e+83  -9.4024526782248936e+84  2.8251634598431414e+84  1.7574416612349155e+81  1.4683782206470073e+85  -3.0082272785806586e+83  2.0055213465883039e+86  -3.4960179889176994e+84  -1.5876600715765327e+85  7.8186176441829676e+82  6.4277564622397088e+83  -1.6764992327174434e+87  3.6465672858335300e+84  -1.2395201485082225e+84  1.9847891432268739e+83  3.4413648345115237e+85  -4.9285519422753797e+84  6.7557208511764513e+82  -1.0967407742457163e+85  1.0084073991023037e+83  -2.2205029640489273e+81  -9.4658878788845576e+82  -5.3556160735125555e+83  -7.9752078750432279e+84  1.0310225219471906e+82  -3.3153382439905691e+83  -7.8031227729947436e+84  9.9210265618277340e+83  2.7280145857999375e+81  -2.8948239180776135e+83  1.3898037050728890e+85  3.8026214456919135e+83  2.3850529669008696e+87  -7.2481279568179390e+83  3.2049528998697515e+84  -2.8837420128684291e+84  1.7091746334867534e+84  2.5270219175809451e+85  -9.6433491606156882e+84  -2.1068996045100583e+83  4.5516014598817553e+88  3.9540798427968963e+82  1.4940849300643968e+84  -1.1862379363999265e+84  3.8924705780282027e+83  -1.3778150298343880e+85  -1.5062637358255795e+84  2.3793916285482940e+85  2.5896203872757343e+84  -8.1905682757117391e+82  -1.6066285313602081e+84  -1.4339592860828484e+84  1.1229521844392224e+84  -9.4510995152830931e+83  -7.5109035387455603e+86  -4.4067317438787592e+82  -7.8088653355827866e+85  1.0934094260505885e+85  7.4827434336197802e+84  9.8385782458696115e+83  -6.8989158775346977e+82  1.4625452807486104e+84  -6.0608236387433617e+84  -2.4449541820645287e+84  5.4153365471361134e+82  -8.2787361585972797e+84  -1.0484281855487294e+83  -3.7991235845470768e+86  -4.4020932850117228e+83  -1.4347575586976754e+86  -2.4125513083583908e+86  -8.3003593507913403e+84  -2.5869305054699340e+85  1.3876310106584486e+85  2.0385864993558966e+85  -1.8122831430022120e+86  -4.0250119032349711e+86  -1.2016177626579706e+82  -1.5588984367369528e+82  -1.1604641354254714e+85  -3.0400646031496725e+83  2.7174063628842201e+83  -7.0841254751886369e+81  -7.6584802953158468e+84  -4.8467388256279340e+84  2.8097306532379269e+85  -2.7452663194079959e+89  -2.6342266441791222e+85  1.3970377255872713e+84  2.1622739751735773e+82  1.3529439256123846e+85  -2.2174837779554118e+82  3.7267156117911333e+83  -2.4026793549332163e+85  -5.8947800912039247e+85  -2.5807208945913360e+84  -4.2259591581400926e+84  4.8462694464750869e+85  -1.1079878344377505e+83  -1.9995684126803204e+86  -7.5071046177149650e+85  -5.2779840358910573e+84  7.3293468520748913e+87  -2.1054385123830029e+83  -8.1821077549569263e+83  -1.7525504404105505e+83  9.2586793071511015e+86  -3.2612585998154894e+86  -2.0821932362459375e+86  -6.2957720209948202e+85  -1.6448561783494898e+84  -6.7716204077593396e+85  4.8852514981402082e+83  -1.1308587191189315e+85  -1.9259505443025494e+85  -1.9593441570768330e+82  -2.5086446463995231e+82  -6.9360879463622586e+82  -9.8527696527018068e+84  3.0721916601228869e+83  -7.3591693074704837e+81  -1.6996118577236472e+85  3.0622548375941692e+86  -3.3709912653431157e+83  3.5848046678760661e+84  -5.0087533400885405e+82  -3.4667758592539308e+84  -2.6583114611994191e+85  7.3465344235565519e+84  -1.3707226534071426e+83  -3.3220397520608225e+85  -2.9062179991791148e+84  -1.1680621487283507e+84  -9.0717844392005846e+84  1.3359294535375166e+84  1.6327557109352238e+84  -3.6591495316199788e+84  -3.1936889223529465e+85  -8.7761513002964782e+83  1.8554681790971788e+84  -1.0048309148677129e+85  -6.6270659591582347e+83  4.2657078910731830e+88  -1.5858599031638147e+83  9.2261650292386356e+82  1.6375659955542744e+82  -5.7675504753978282e+84  3.6838359568025165e+83  -1.1900263080326355e+85  -1.9526836967080742e+84  -1.1317112013590303e+83  -4.1441994749858879e+83  2.7026601154218472e+83  -8.7798993418166218e+81  2.1747033361251807e+83  2.2421294297720791e+84  -5.4047398323497372e+83  1.0825447247241366e+82  -2.2793008687950456e+84  3.2654132429299279e+82  1.9483602426439864e+82  -4.2828212424704768e+84  -1.5746855633177688e+86  -9.7746660747016959e+86  2.4261730643598233e+85  1.2002369580928120e+84  -9.1340567012271855e+82  1.3336523885895769e+84  4.2074852092559473e+83  7.1559611043622429e+84  -5.8019291989787141e+84  -4.7603311890486202e+83  4.6977560464050229e+84  -5.8446680602264565e+82  4.4827074117116952e+86  4.6077226746964924e+83  -4.0497057043971966e+83  6.6284280149086117e+81  -2.4178324893448727e+83  3.4222367016834825e+86  3.7589688149466094e+84  -1.2603797438830543e+82  1.1970308339631452e+83  -1.8898722950645969e+83  5.0768005160481174e+84  -7.3101420468728989e+84  5.1150040249347405e+83  -3.1584006965552599e+83  2.1421800398388661e+82  -1.0642979139291143e+84  3.1940043765423459e+83  2.7656416327697795e+82  -9.7520950154313662e+85  -5.5243202026740779e+83  4.9133542091574839e+84  3.1259869524810347e+83  3.4274174617728540e+82  4.5351669155432197e+85  3.3999940370038553e+85  -2.43