<?xml version="1.0"?>
<VTKFile type="UnstructuredGrid"  version="0.1"  >
<UnstructuredGrid>
<Piece  NumberOfPoints="2331" NumberOfCells="4248">
<Points>
<DataArray  type="Float64"  NumberOfComponents="3"  format="ascii">0 0.3 0  0 0 0  0.04999999999999999 0 0  0.0514582251803892 0.02410733605106462 0  0.0558116365147896 0.04786313285751154 0  0.06299675146291706 0.07092097740850717 0  0.07290879486935808 0.09294463440875382 0  0.08540322682126872 0.1136129493462312 0  0.1002978503657798 0.132624531648159 0  0.117375468351841 0.1497021496342203 0  0.1363870506537689 0.1645967731787313 0  0.1570553655912463 0.177091205130642 0  0.1790790225914929 0.187003248537083 0  0.2021368671424885 0.1941883634852104 0  0.2258926639489354 0.1985417748196108 0  0.25 0.2 0  0.2741073360510646 0.1985417748196108 0  0.2978631328575116 0.1941883634852104 0  0.3209209774085071 0.187003248537083 0  0.3429446344087537 0.177091205130642 0  0.3636129493462312 0.1645967731787313 0  0.3826245316481591 0.1497021496342202 0  0.3997021496342202 0.132624531648159 0  0.4145967731787313 0.1136129493462312 0  0.427091205130642 0.09294463440875371 0  0.4370032485370829 0.07092097740850713 0  0.4441883634852104 0.04786313285751155 0  0.4485417748196108 0.02410733605106461 0  0.45 0 0  0.55 0 0  0.5514582251803892 0.02410733605106462 0  0.5558116365147896 0.04786313285751154 0  0.5629967514629171 0.07092097740850717 0  0.5729087948693581 0.09294463440875382 0  0.5854032268212688 0.1136129493462312 0  0.6002978503657798 0.132624531648159 0  0.617375468351841 0.1497021496342203 0  0.6363870506537689 0.1645967731787313 0  0.6570553655912463 0.177091205130642 0  0.6790790225914929 0.187003248537083 0  0.7021368671424885 0.1941883634852104 0  0.7258926639489354 0.1985417748196108 0  0.75 0.2 0  0.7741073360510646 0.1985417748196108 0  0.7978631328575116 0.1941883634852104 0  0.8209209774085071 0.187003248537083 0  0.8429446344087537 0.177091205130642 0  0.8636129493462312 0.1645967731787313 0  0.8826245316481591 0.1497021496342202 0  0.8997021496342202 0.132624531648159 0  0.9145967731787312 0.1136129493462312 0  0.927091205130642 0.09294463440875371 0  0.9370032485370829 0.07092097740850713 0  0.9441883634852104 0.04786313285751155 0  0.9485417748196108 0.02410733605106461 0  0.95 0 0  1 0 0  1 0.3 0  0.9758926639489353 0.3014582251803892 0  0.9521368671424885 0.3058116365147896 0  0.9290790225914928 0.3129967514629171 0  0.9070553655912461 0.3229087948693581 0  0.8863870506537688 0.3354032268212687 0  0.867375468351841 0.3502978503657798 0  0.8502978503657798 0.367375468351841 0  0.8354032268212687 0.3863870506537689 0  0.822908794869358 0.4070553655912464 0  0.8129967514629171 0.4290790225914929 0  0.8058116365147896 0.4521368671424885 0  0.8014582251803892 0.4758926639489354 0  0.8 0.4999999999999999 0  0.8014582251803892 0.5241073360510646 0  0.8058116365147896 0.5478631328575115 0  0.8129967514629171 0.5709209774085071 0  0.8229087948693581 0.5929446344087538 0  0.8354032268212688 0.6136129493462312 0  0.8502978503657798 0.632624531648159 0  0.867375468351841 0.6497021496342202 0  0.8863870506537689 0.6645967731787313 0  0.9070553655912463 0.677091205130642 0  0.9290790225914929 0.6870032485370829 0  0.9521368671424885 0.6941883634852104 0  0.9758926639489354 0.6985417748196108 0  1 0.7 0  1 1 0  0.95 1 0  0.9485417748196108 0.9758926639489353 0  0.9441883634852104 0.9521368671424885 0  0.9370032485370829 0.9290790225914928 0  0.927091205130642 0.9070553655912463 0  0.9145967731787312 0.8863870506537688 0  0.8997021496342201 0.8673754683518409 0  0.882624531648159 0.8502978503657798 0  0.863612949346231 0.8354032268212686 0  0.8429446344087537 0.822908794869358 0  0.8209209774085071 0.8129967514629171 0  0.7978631328575114 0.8058116365147896 0  0.7741073360510646 0.8014582251803892 0  0.75 0.8 0  0.7258926639489353 0.8014582251803892 0  0.7021368671424885 0.8058116365147896 0  0.6790790225914928 0.8129967514629171 0  0.6570553655912461 0.8229087948693581 0  0.6363870506537688 0.8354032268212688 0  0.617375468351841 0.8502978503657798 0  0.6002978503657798 0.867375468351841 0  0.5854032268212687 0.8863870506537689 0  0.572908794869358 0.9070553655912463 0  0.5629967514629171 0.9290790225914929 0  0.5558116365147896 0.9521368671424885 0  0.5514582251803892 0.9758926639489355 0  0.55 0.9999999999999999 0  0.45 0.9999999999999999 0  0.4485417748196108 0.9758926639489353 0  0.4441883634852104 0.9521368671424885 0  0.4370032485370829 0.9290790225914928 0  0.427091205130642 0.9070553655912463 0  0.4145967731787313 0.8863870506537688 0  0.3997021496342201 0.8673754683518409 0  0.382624531648159 0.8502978503657798 0  0.363612949346231 0.8354032268212686 0  0.3429446344087536 0.822908794869358 0  0.3209209774085071 0.8129967514629171 0  0.2978631328575115 0.8058116365147896 0  0.2741073360510646 0.8014582251803892 0  0.25 0.8 0  0.2258926639489353 0.8014582251803892 0  0.2021368671424885 0.8058116365147896 0  0.1790790225914928 0.8129967514629171 0  0.1570553655912462 0.8229087948693581 0  0.1363870506537688 0.8354032268212688 0  0.117375468351841 0.8502978503657798 0  0.1002978503657797 0.867375468351841 0  0.08540322682126869 0.8863870506537689 0  0.07290879486935797 0.9070553655912463 0  0.06299675146291703 0.9290790225914929 0  0.05581163651478957 0.9521368671424885 0  0.0514582251803892 0.9758926639489355 0  0.04999999999999999 0.9999999999999999 0  0 1 0  -0 0.7000000000000001 0  0.0241073360510646 0.6985417748196108 0  0.04786313285751161 0.6941883634852104 0  0.07092097740850711 0.6870032485370829 0  0.09294463440875372 0.677091205130642 0  0.1136129493462312 0.6645967731787312 0  0.1326245316481591 0.6497021496342202 0  0.1497021496342202 0.632624531648159 0  0.1645967731787313 0.6136129493462312 0  0.177091205130642 0.5929446344087537 0  0.187003248537083 0.5709209774085071 0  0.1941883634852104 0.5478631328575115 0  0.1985417748196108 0.5241073360510646 0  0.2 0.5 0  0.1985417748196108 0.4758926639489353 0  0.1941883634852104 0.4521368671424885 0  0.1870032485370829 0.4290790225914928 0  0.177091205130642 0.4070553655912463 0  0.1645967731787313 0.3863870506537688 0  0.1497021496342202 0.3673754683518409 0  0.132624531648159 0.3502978503657798 0  0.113612949346231 0.3354032268212686 0  0.09294463440875361 0.322908794869358 0  0.07092097740850711 0.3129967514629171 0  0.04786313285751148 0.3058116365147896 0  0.02410733605106464 0.3014582251803892 0  0.6985417748196108 0.5241073360510646 0  0.7 0.5 0  0.6985417748196108 0.4758926639489353 0  0.6941883634852104 0.4521368671424885 0  0.6870032485370829 0.4290790225914928 0  0.677091205130642 0.4070553655912463 0  0.6645967731787312 0.3863870506537688 0  0.6497021496342201 0.3673754683518409 0  0.632624531648159 0.3502978503657798 0  0.613612949346231 0.3354032268212686 0  0.5929446344087537 0.322908794869358 0  0.5709209774085071 0.3129967514629171 0  0.5478631328575114 0.3058116365147896 0  0.5241073360510646 0.3014582251803892 0  0.4999999999999999 0.3 0  0.4758926639489353 0.3014582251803892 0  0.4521368671424885 0.3058116365147896 0  0.4290790225914928 0.3129967514629171 0  0.4070553655912462 0.3229087948693581 0  0.3863870506537688 0.3354032268212687 0  0.367375468351841 0.3502978503657798 0  0.3502978503657798 0.367375468351841 0  0.3354032268212687 0.3863870506537689 0  0.322908794869358 0.4070553655912464 0  0.3129967514629171 0.4290790225914929 0  0.3058116365147896 0.4521368671424885 0  0.3014582251803892 0.4758926639489354 0  0.3 0.4999999999999999 0  0.3014582251803892 0.5241073360510646 0  0.3058116365147896 0.5478631328575115 0  0.3129967514629171 0.5709209774085071 0  0.3229087948693581 0.5929446344087538 0  0.3354032268212687 0.6136129493462312 0  0.3502978503657798 0.632624531648159 0  0.367375468351841 0.6497021496342202 0  0.3863870506537689 0.6645967731787313 0  0.4070553655912463 0.677091205130642 0  0.4290790225914929 0.6870032485370829 0  0.4521368671424885 0.6941883634852104 0  0.4758926639489354 0.6985417748196108 0  0.4999999999999999 0.7 0  0.5241073360510646 0.6985417748196108 0  0.5478631328575116 0.6941883634852104 0  0.5709209774085071 0.6870032485370829 0  0.5929446344087537 0.677091205130642 0  0.6136129493462312 0.6645967731787312 0  0.6326245316481591 0.6497021496342202 0  0.6497021496342202 0.632624531648159 0  0.6645967731787312 0.6136129493462312 0  0.677091205130642 0.5929446344087537 0  0.6870032485370829 0.5709209774085071 0  0.6941883634852104 0.5478631328575115 0  0 0.15 0  1 0.15 0  1 0.85 0  0 0.8500000000000001 0  0 0.075 0  1 0.075 0  1 0.925 0  0 0.925 0  0.5 0.8127595604293815 0  0.5069440078039168 0.190422209288238 0  0.25 0.3127595604293815 0  0.756944007803917 0.3095777907117619 0  0.756944007803917 0.6904222092882382 0  0.25 0.6872404395706185 0  0 0.225 0  0.4255768646051012 0.2241073097134061 0  1 0.7749999999999999 0  0.6773391559270888 0.2766774022734219 0  1 0.225 0  0.6755768646051011 0.7241073097134062 0  0 0.7750000000000001 0  0.5818971135297744 0.2287925518358889 0  0.8318971135297746 0.728792551835889 0  0.1659156081861886 0.7301636995921477 0  0.08376842746533225 0.2299656297760495 0  0.4236002201977974 0.7746535834185855 0  0.0840843918138115 0.7698363004078523 0  0.3340843918138113 0.7301636995921477 0  0.3340843918138114 0.2698363004078523 0  0.9159156081861887 0.2301636995921477 0  0.5840843918138116 0.7698363004078522 0  0.1659156081861887 0.2698363004078523 0  0.9162315725346678 0.7700343702239506 0  0.8340843918138114 0.2698363004078523 0  0.75 0.6146645247768686 0  0.5 0.1125158665330878 0  0.75 0.3874841334669124 0  0.2504983345544904 0.6122915843562002 0  0.2504983345544902 0.3877084156437999 0  0.5 0.8879783056303169 0  0.7005361650220154 0.3333055947145943 0  0.70416808765371 0.6599554817221275 0  0.449930214263529 0.1678187287522426 0  0.2247310981387008 0.7415600637745463 0  0.5155081196221678 0.7563797802146907 0  0.2752689018612993 0.2584399362254537 0  0.05605196690611226 0.8246131191226815 0  0.9439480330938878 0.1
[...]
<PointData  Scalars="Temperature"> 
<DataArray  type="Float64"  Name="Temperature"  format="ascii">-1.4368121860444262e+15  7.8813371833817276e+10  2.3466533779171915e+11  -3.7464580113796973e+11  1.6289402025478442e+12  -1.2857365664962486e+13  3.7442176870703852e+13  -3.2576930165236469e+14  -4.4422576934667995e+15  3.6599031458530390e+15  5.4258040825119622e+17  6.5868477012649892e+18  5.1229503918542774e+19  3.3628555818904820e+20  -1.7151016964792600e+21  -7.1863903783784850e+21  6.6827915925621614e+21  -1.2389997314421538e+23  1.7915144969035707e+23  4.1469271972065963e+23  -8.9601912640807650e+24  -2.4505306150496409e+25  -1.4614004921319706e+25  -4.5093627868388502e+25  2.4571965517075654e+25  5.9761677396320237e+24  2.9354270366553584e+24  -7.5086864663489031e+23  6.0335605694774531e+23  1.4712940597544935e+25  -2.6948819984295070e+25  4.9168194431348742e+25  -9.3026835011184752e+26  5.4665405420181788e+27  6.0299589302414780e+28  -4.0619637245514955e+28  -1.6062772274288177e+30  -2.3677624735419723e+30  -9.7707153156041575e+30  2.4978448940667861e+31  -3.6715234598172101e+32  3.0071226030221935e+32  -7.6818190821524134e+30  -1.1583617141619190e+31  -7.8080167881896117e+31  2.4717301799378415e+30  2.5183356363849931e+31  -5.2217845096625759e+29  1.4429207135915907e+30  -6.5447242727173530e+28  9.5181324539148560e+28  -3.0224410166034953e+28  1.6965046969485500e+27  6.4226186071975646e+26  5.7363919138348836e+25  -1.5165326561182866e+25  5.8101774772794840e+23  -1.3823637830792209e+32  -4.0379647889109249e+32  -2.8925608585815696e+33  -1.9333068347586394e+34  -1.0473398918609758e+35  -9.1968252587863450e+35  -2.0325924152632109e+36  1.0193811067639619e+36  -1.8643106651733019e+38  9.8834446797294514e+38  -2.7426962464539716e+39  5.6671087505515161e+40  -2.2704374892985705e+41  -1.9690454123488694e+42  1.3417203399469233e+43  -4.3317807289362131e+43  2.9450659882668947e+44  -2.5121560324209264e+45  2.2591250212231058e+45  -7.6846614904760386e+46  -1.6539881786031431e+48  -3.0547422270869088e+48  -4.8776906495518984e+49  7.2491888094469828e+48  8.8146264202940772e+50  -1.6999608446885387e+51  -6.1463050663454485e+51  -4.2040569270772212e+48  2.2264553871505500e+49  -3.2261875069654811e+49  -3.0711152046277188e+49  -5.2482647621620640e+50  6.1047896975215826e+50  -2.9410421080529112e+51  1.8112034826996331e+51  -1.4165453628491511e+49  -2.2990802305514619e+50  -7.5026270717090818e+49  1.2348697120623860e+49  1.1636563574922453e+48  1.6363963158013083e+46  1.0431669585043936e+46  5.1924408716705861e+44  2.5278920270395725e+43  -1.8678563083977358e+43  7.1059697121327147e+41  3.2090999175808004e+41  -9.7670969369889229e+40  5.7417336971576123e+39  -2.6773682097980629e+39  2.1573679085200068e+38  -9.1467769317408301e+37  -2.7071496020465210e+36  8.4578587471966142e+35  5.0448254508684829e+35  1.1130192589927972e+34  -3.1113539933588034e+33  5.1085702432916806e+34  -6.5724687721385964e+34  -8.4382632812841347e+34  -3.3651873430240067e+34  4.2308243868796824e+34  2.9865061786330935e+34  -2.4864213934895468e+33  -8.0051906464478700e+32  1.4350245457699905e+32  -3.6088104676650896e+31  5.8891854374027947e+30  8.5310622601977248e+29  -1.8898717856947550e+29  3.0442343608168872e+28  3.8740695056603102e+26  -1.3348322719936569e+26  -1.3795583505240996e+25  2.3106495766388732e+22  -1.4507766652530409e+23  1.1247411931473349e+22  7.1656396660450132e+20  2.8447479466181683e+20  7.7781148626564006e+19  3.6191380871803704e+18  -5.5719882542332293e+18  -5.7342057858522563e+18  3.5719814802271120e+21  -5.1812273127650398e+21  -6.1322720314889005e+22  2.0016984908925270e+23  2.8200879255990384e+24  7.8185130663615410e+24  -6.5392506191428438e+25  -1.1655002950914109e+26  5.6722316092919669e+25  -2.6880705119348501e+26  -4.5119844841663122e+25  7.1417523791408710e+24  -5.3163909707726300e+24  1.9091943819904060e+24  7.7637171739473697e+23  -1.3193716915030894e+23  3.2601571362393637e+22  -9.4213803577305266e+21  2.9212602931414418e+21  3.3400074935501252e+20  -1.6403804180284285e+19  5.8900390650762066e+18  2.1123921563356884e+18  -3.4109207864107864e+16  4.7462264122305000e+16  6.3758812783113990e+15  5.5617304114142730e+39  -1.0272974494825117e+41  -2.5647242920535004e+39  -9.3924906694970671e+39  -1.6755827336502113e+38  8.0774968336928422e+37  -1.2733685145306599e+37  8.3254432096903809e+34  2.9622371538248403e+35  9.3393310023951554e+33  3.9549552368699459e+33  5.2295269156444697e+31  -1.1464697086284595e+32  -2.8004411673090130e+31  -5.4625245576489767e+29  -3.6356700954315816e+29  -2.8076504500743171e+28  2.1965466270841632e+28  1.6312529983544123e+27  -2.9036972956224427e+25  1.7862873344987383e+25  1.2123198418437022e+24  -8.2333911382249326e+22  2.9023603196582122e+22  4.5007027096946534e+22  6.9697781032488334e+23  -4.6867033938758063e+24  2.1109517407808609e+25  -1.6045066746141478e+26  2.0842231031733257e+26  1.0501820866285716e+27  1.1443350149932729e+29  -3.0367202528162595e+28  -1.3290047848308348e+31  5.8289725389220713e+31  2.1188171848237109e+32  -5.6486212680095510e+33  -2.2243076888008072e+34  -1.0002725208818405e+35  -1.1278068398522898e+35  -7.3776119107371709e+36  -1.1549515298125843e+37  -1.0949638132219259e+39  1.6087519175413627e+39  -5.1110031362313867e+40  4.9358438362902154e+40  1.7674341234855825e+41  2.8015581055379394e+41  1.4143089983830184e+40  9.8535746524881473e+41  -1.5705906921128566e+42  -1.2532743956857911e+41  2.0103056705879320e+13  1.4160450337101540e+29  4.7028109663965618e+53  -3.8041784936419695e+20  5.9975947320252502e+10  -4.2472612424970336e+26  9.0817117068533191e+50  7.7030523014894846e+19  3.3621865341924666e+37  -2.7466464978922257e+28  5.1332415375751145e+20  9.4723195140287246e+35  -1.7088730634513148e+45  -1.8599218774365356e+29  -1.3622279314000811e+14  1.4065139190124074e+27  4.5193359657491739e+53  -4.8544348204688581e+32  -1.0784326758660740e+31  -5.7212723579058563e+42  -1.0017408029039975e+22  1.1251827505599059e+31  -1.6798550898972373e+48  -6.9277668070221568e+25  -2.6274695646640768e+16  1.3427520157627835e+35  -5.2021676845889026e+23  -7.9223064415836122e+31  8.5412154363886764e+24  -2.7151372599742930e+32  -5.0017556495616523e+40  -4.0762494885168333e+19  -3.1011778484302174e+51  -1.5147100466067697e+33  9.5941789657163856e+43  5.5382952525226796e+26  3.0430309023005786e+37  -2.8959551075574050e+28  5.0650560834825859e+21  6.2198801144665644e+36  2.2840173927407596e+35  -1.0789658020963355e+43  -7.3440772722871920e+26  -1.4537354792215655e+26  -6.8286928701772847e+37  2.1384161680583364e+23  -4.7530506384394376e+22  3.0426514545187783e+29  -3.3461594330417175e+14  -4.9820557053497410e+52  1.0992086176564467e+29  -7.2198273069101966e+44  4.2412531597614403e+33  6.6178598290497685e+35  -2.0242859254362255e+27  -4.4305093872982655e+19  -2.1098183806267879e+30  -1.6353275664283500e+23  1.2777092741220504e+38  -9.1546277202698464e+24  1.4692144560718440e+39  -2.6816166601856646e+42  7.9511508166953048e+22  -1.9983851562096352e+26  -9.4693658639336879e+33  -1.1980624972165366e+36  3.5749360633462150e+21  6.2587562410175360e+29  4.6596248412445401e+29  -9.7935598983418371e+45  1.9243252035385413e+36  1.5430486475843187e+32  8.2639005760153754e+26  3.7354316197449934e+25  -3.6519370004937991e+42  9.3440117735514436e+40  3.5121991830666994e+33  -3.6193293763510310e+46  -3.3992125220326439e+33  2.7726842370250449e+41  1.9740753534126778e+24  2.0750774799045041e+25  -2.8394745667297141e+33  -4.0435716682990426e+33  2.4130378087368182e+30  -5.6962142392080527e+49  -7.4824980247705191e+49  1.5633097451592341e+37  9.6046374379362928e+16  5.3260247821459139e+21  1.7829906020717309e+32  -5.6866670137754400e+25  5.0836336455674819e+18  -8.0956451381346012e+24  -3.2337480431856413e+31  2.4537041258264628e+32  -4.5703722118722827e+51  2.4570026156823940e+15  3.8356548758729875e+28  -2.3028169134865439e+52  -1.8057879965131488e+13  -1.7011829901893871e+21  1.1589679998819909e+38  -1.7726964373028228e+47  2.5435015255508822e+28  -8.0968589466341218e+43  1.5285023235890896e+41  -1.6439389883341717e+32  3.5460542644617610e+18  -1.6025773053834189e+31  1.3625742464279982e+25  1.9727825905535928e+26  -2.6318726402752006e+24  5.0365653860282352e+16  -5.0881183463035541e+50  -6.1304452023939794e+27  4.2091522593702814e+19  1.5782805359617029e+38  -1.8496980082860367e+48  -6.3740286984440628e+21  -1.3905310063722158e+29  1.4500970239305584e+33  -9.6869339335308901e+34  6.1658883640752037e+33  2.5674759100503084e+28  -1.3162937587482258e+42  -9.8268660052366895e+24  -9.5623422997345874e+43  3.4198278763222695e+35  -4.6734389041802081e+35  1.1996148770602395e+32  -6.7939210697412022e+33  -6.5201105746690477e+47  -5.7321830346033481e+30  -5.9459910181808686e+27  2.1582242700673578e+24  -2.5287585000521306e+31  1.5150267456640051e+20  2.9981746088755393e+35  -3.6151695370500266e+39  2.4572794170233677e+28  -1.4242977659980512e+15  5.1542619486348114e+32  7.6983865786282410e+30  -3.5827785755442421e+22  2.2863095403588107e+38  -4.1380335158666750e+21  1.5711499890235894e+29  -6.3554889024171259e+34  7.4796852931163199e+51  -1.3168290607361657e+26  -4.0351343555990555e+36  -2.6510862614938376e+37  -2.6171915532691402e+27  -7.4688474622095672e+13  4.2422577858997406e+43  4.8763156072760136e+42  5.6776616091728765e+44  1.5654994642717313e+26  -4.0916312808982168e+21  -1.7109803961487763e+29  -9.2513193362007859e+21  -3.2499323057776739e+23  1.6682613337804205e+25  1.3847321494219009e+26  -7.7751290176508631e+38  -6.6585603926651758e+37  2.0039619655230052e+38  8.3253196744716866e+36  1.2862247867058601e+36  -5.6708063213662021e+54  2.1595347646031439e+21  -4.1318819726992260e+52  1.7077684007056940e+30  -2.5738508974626644e+14  -8.0107127332020323e+25  3.9894171528621509e+11  5.8342858096028519e+27  3.8834513443965511e+27  3.0238654035365088e+12  5.4465551559385187e+49  1.0262219313167969e+18  7.5249917842476905e+51  -5.9404911664167164e+20  4.0186185962056679e+20  1.9120397157991247e+22  -7.2384366586548555e+27  -2.9264745830177893e+28  3.9442143819096979e+23  5.3640133182425318e+36  -8.4863403398426529e+50  -1.0860810479961344e+30  -3.7483843930129577e+20  -1.8415089745848967e+46  -6.2988296025714988e+43  -2.8641534788132849e+36  -7.8007557489312845e+52  -3.2062064605532203e+39  4.5386083885789233e+29  -3.6530749282831422e+28  -1.5492392301591236e+21  -1.8439878453281526e+18  4.5467914109318010e+32  3.7909056539599559e+28  -3.0078520549195967e+34  1.2038719957009990e+37  -4.8643344053479275e+38  -3.2889300951306835e+42  -1.1513829121125729e+42  1.0897935936538266e+52  5.4677871629212725e+12  9.1180469565162970e+17  -1.1729394037947017e+47  -1.6080104452652624e+30  -1.3970635067984464e+21  -3.9921723028549184e+32  7.2089351512188427e+29  3.9619622020509441e+43  7.1959330282803656e+32  -6.0787938375415221e+36  2.7450534581901745e+26  -1.7930878837467688e+41  -5.2538767703105436e+34  4.2744830662236951e+11  5.1832745389802347e+26  3.9184292129438131e+50  -9.0031290061232046e+19  2.1885930829019373e+33  2.8829233327791481e+42  2.5141289169938880e+28  9.3235999395797627e+21  -1.1447580297866582e+22  1.8952402261670374e+29  -2.1078536952207685e+28  -2.5429754116510654e+32  -7.8712967434700912e+14  4.1529611496204445e+15  -4.7420563587935859e+13  -1.1267598064205708e+26  2.2839453891973205e+27  4.3232778842425136e+16  2.6603653607192917e+36  2.3885693636846454e+24  -2.1558310469388922e+25  5.0476876008287359e+31  6.1544784644340204e+33  -1.1833117373707564e+33  3.1863588397874436e+24  -1.1441316144901903e+41  2.4114843506913930e+53  3.2679143973411024e+42  -3.0985244112083218e+44  1.7785777732740138e+30  -1.4988776741160544e+36  2.4686559741785303e+36  -2.8188185339092540e+24  -6.2959071758813176e+24  -3.1513845053491708e+40  -2.7210758740651431e+39  1.1118344998795585e+24  7.4819668208344335e+23  1.0183262202365680e+34  -1.5126480183199226e+49  -5.8073585471158037e+34  1.7861307778641271e+31  1.0885002576582493e+24  -1.0315161568334410e+33  -7.6814070441239216e+19  1.0255613635199908e+30  -4.3633242900802329e+28  1.8613296674593638e+27  9.1306184690835657e+22  2.6507630300981258e+22  -1.4766511705192592e+29  7.0773122134829358e+39  -1.1517050979480529e+39  3.7838668711523166e+22  1.1836575343795606e+27  2.1488697493723154e+23  2.3231629811745518e+19  5.7173215619579166e+30  -6.7220125683931010e+26  3.9720277809819000e+38  4.9160416001706053e+41  -1.8766694630325311e+42  5.0651156089897726e+25  2.2100895788067263e+25  3.3666452602791613e+18  -1.0902339073412382e+44  -6.9930048310959058e+44  -1.1636567340205397e+45  6.9298306368236523e+27  -2.4652177589301358e+43  4.2562236869268643e+37  -2.3084197911998039e+26  -7.1227484300917072e+34  -3.3456512023872023e+35  -2.1166606098888979e+36  3.7320508662337051e+29  1.1657666452794358e+29  1.5269881927645673e+33  -1.1244673919748612e+33  -3.4382719980572020e+52  -1.0788483234548978e+18  -4.5172978157503413e+36  1.7173548162390356e+29  -1.1678929729588277e+49  1.1712877960429257e+49  -1.2791333249001782e+35  -3.6773367008606604e+34  1.9328059363197765e+32  -5.6702111658740968e+26  2.4766629307000081e+25  2.7109114968004092e+25  9.7154630294220535e+41  -1.6954006123203051e+41  9.4615881823041344e+33  4.9758598905861390e+30  4.0897968164758995e+27  -5.0116181983807767e+30  -1.0435204834373441e+33  1.6107177784146551e+43  -1.2694444075737086e+31  -4.7865197743986720e+23  2.4291575117751695e+31  1.1491292701040581e+49  7.9194998300152231e+24  4.6676280868138077e+10  -2.0143212511157373e+18  -2.2368870595338279e+28  -3.2483649840406468e+32  -3.6160407786749890e+24  8.1340488059801814e+34  -9.8337026189094901e+42  3.9699866424191100e+34  -3.3460838186974999e+25  3.9041290613527697e+24  4.9082116836439242e+22  -5.9415273867202517e+32  -6.2953553149743437e+48  -3.4834880905522135e+49  -4.2217313863616733e+50  -6.5872591139979711e+48  8.7075248152650268e+39  1.7063176929096340e+24  -9.5681020159834321e+26  -6.2511713476897726e+34  -4.2461630639646579e+34  -2.9519296310672595e+35  -4.0285812690918537e+40  -5.0426363779297357e+43  -7.7505946925979289e+25  -5.5597461229000129e+26  -3.7062678336785275e+18  5.6726517884520049e+23  -1.3358901391055071e+34  -3.9211239252233446e+17  -2.4795297686655683e+28  -1.9770260977354370e+32  -4.4528304223725299e+38  -5.3701288674292544e+14  -1.4868591599710268e+26  -1.6030215482422493e+46  -4.8321353456723655e+45  -5.1478207619056369e+51  -3.8359307440113765e+30  4.1329731023035643e+20  -2.7066693156233314e+30  -5.3571045569030906e+26  -8.8981863224642944e+25  -1.2202468546077472e+25  3.2654858278129245e+24  -2.0161400210172003e+40  5.3196142162249195e+13  1.2754688559755455e+50  -8.9576920243738455e+22  -1.0727340968121643e+34  -1.1994548486581506e+22  1.0698151916935122e+30  -1.5880435771058827e+45  -3.3518786582962382e+35  4.4012532845221044e+24  5.4736160049273312e+39  -4.1742445253757527e+18  -1.6015379224067356e+36  -9.9537317268561995e+52  -1.1101864816801384e+24  -1.2886407523726337e+33  4.8836774013311123e+22  -1.2547290316557873e+32  -3.2583382612806076e+25  -3.6003956477158032e+25  8.6618910837659965e+18  2.6297504020929367e+10  5.8938013226207416e+49  -6.4804486331462312e+28  -2.0915203727858381e+37  -9.4580930970404556e+49  2.1342553042405166e+33  5.4673104313089429e+24  1.9419234474960140e+32  -1.6689545741639562e+33  -4.2432717473958063e+40  -3.9041740852011365e+15  -7.9012101647419916e+25  4.8374266071861870e+23  -8.3909867452073511e+29  -6.2748402244798962e+33  3.7644317206707470e+32  -8.8217049814072519e+32  -3.6468800496148693e+22  -2.1913427322572501e+32  -2.9087520276925200e+22  5.9871979585547849e+38  -3.4776788679952722e+29  8.9614338674782938e+21  7.5937925824196168e+27  -1.0750609161778024e+47  5.9317721656588802e+20  -5.4512693490962372e+34  -3.6539351366435380e+47  -7.8606117252553047e+45  -6.9637397133433458e+45  8.2664241890713602e+34  1.9983906126915744e+35  -1.4952034207265943e+52  1.8574807125706098e+27  1.7098540589206186e+20  -6.9172574069391204e+30  8.3295621847299495e+36  5.3246518315506790e+42  -9.4329851201465859e+28  -2.3869770370053155e+24  -2.8531184598590383e+53  8.8294987825728834e+22  3.6836125178783166e+29  2.5999208519127037e+24  1.1673806574568601e+34  -1.5836690702690628e+23  4.8616242617588965e+26  -1.3044489592334223e+19  -1.5072457841107218e+30  -3.4246795878363792e+23  2.7724470269641568e+23  1.1178254058164756e+32  3.7385572737729239e+30  -2.4633454319659597e+31  4.7078401841819554e+51  -3.9753345318752300e+14  -4.3446998957063265e+30  -3.0044395912307252e+21  2.5909971494916409e+37  1.1608471995226834e+30  1.5104755198627748e+31  -3.9372133357918635e+32  8.7910758675201680e+28  5.4039246809321680e+21  3.4805163855350935e+22  -7.2575889777447608e+34  -2.1320416723435520e+21  6.1796868444193929e+26  2.2423227317931231e+48  -4.5960877316012840e+27  -1.8067940646220785e+35  -2.4947818864814896e+17  -9.7095279674593936e+33  -4.1816600592817095e+19  -3.1183821595422377e+18  1.1368526985487267e+51  2.5234150160974342e+51  5.2824533022106762e+14  -9.5263488884466300e+15  -1.2352276215391797e+26  5.0162496134475347e+34  -1.7728752559901083e+39  -7.7621403150003055e+37  2.2070461719648010e+36  -2.4115070685528573e+37  -8.4303703171779482e+33  1.7207573789270680e+54  -3.9029920034668906e+38  8.9165085359360432e+33  -1.0136288824997894e+23  3.4479457497797857e+24  1.5823538198233220e+37  3.2025042176946093e+40  2.5462570998027334e+37  1.0145682116728708e+35  2.7309970214992297e+44  4.3757016336255104e+22  -5.2871206876739526e+25  -4.0432675300513616e+22  -7.1642999015539925e+26  -2.8558842612396186e+28  1.2598896260497460e+21  -4.5941444991638937e+52  8.7417730059473477e+12  3.8599129626613641e+13  2.2606333294324562e+14  -5.8017071058086811e+51  2.0420181233137841e+51  -5.6193223068720051e+47  -6.0446876614839270e+28  -5.1493785612947136e+46  5.3614048556567615e+26  9.2010827158942721e+44  1.2815766280474701e+29  -1.5449267780504164e+28  -8.9104097228369103e+21  2.6587479820237573e+20  -1.1387017089629631e+21  -8.3279186517640328e+36  -5.8235261946401664e+13  1.1227412395582768e+21  2.2456687247533532e+27  -1.9217589146531271e+51  5.4213172721120287e+28  -3.2254253700743741e+34  6.1016259048855716e+31  -6.2509335823906007e+20  -1.0778012933545386e+29  1.3293910381463641e+31  -2.3124295873473156e+21  3.8181087409311396e+41  -3.4360117033340919e+46  -1.1342383019578678e+46  -8.3184945023960588e+47  1.9844042887702147e+21  1.3831327216183428e+37  5.8925118787176608e+16  -3.3328846577563162e+47  3.1386096951403898e+24  5.0322435355008168e+30  -3.5795679064569920e+27  -1.2880530195944226e+29  -2.6737828754556713e+53  -1.9700329700802582e+36  3.4819668728592700e+15  -6.9708216037918347e+45  -8.0724045443115056e+24  1.2795014441321090e+42  1.1964718774711827e+25  -3.7352833568665581e+30  -6.5591662696377428e+41  1.7624038798474382e+37  -4.2652959428174627e+39  -1.3015694542517644e+38  2.8566946889959129e+19  5.5893833211124480e+24  -6.0499137371586512e+31  -2.4047757880268394e+37  -7.6171668648799981e+35  -8.8533805947566256e+35  9.3782924947380967e+35  -3.9011940954311552e+37  3.9751139871479680e+26  2.2800443031047119e+25  2.0589901956839811e+32  7.4547601457135111e+31  4.5694513641158512e+21  -8.0618093937891311e+32  6.5115766411327229e+21  8.2217711012834351e+28  2.9685269650920104e+26  1.0433116849904843e+27  8.4623101760006766e+26  2.0992438133749250e+30  -2.8131048484005003e+34  -1.4722204535835217e+43  3.9942062100971152e+42  -2.2599069635860141e+44  -6.0363682068346217e+35  -2.1454144575690902e+51  1.5224440388260855e+30  2.5641718395316996e+34  1.1650246274589651e+17  4.1100710878747470e+15  -3.8009599885375611e+18  -3.0510069246418308e+32  4.2848184500552501e+31  -4.7565945378128753e+31  1.1544847989647136e+38  -4.7803979047801595e+40  2.8415945629903483e+19  -1.5660867090813176e+25  6.1126777985126902e+50  1.1770019614918510e+29  -7.3856835005978255e+27  3.1384680436337902e+33  5.2991555379176938e+20  -1.3715955264815041e+41  -1.9685316685210892e+26  2.4690189173338445e+42  1.756267005230