<?xml version="1.0"?>
<VTKFile type="UnstructuredGrid"  version="0.1"  >
<UnstructuredGrid>
<Piece  NumberOfPoints="2331" NumberOfCells="4248">
<Points>
<DataArray  type="Float64"  NumberOfComponents="3"  format="ascii">0 0.3 0  0 0 0  0.04999999999999999 0 0  0.0514582251803892 0.02410733605106462 0  0.0558116365147896 0.04786313285751154 0  0.06299675146291706 0.07092097740850717 0  0.07290879486935808 0.09294463440875382 0  0.08540322682126872 0.1136129493462312 0  0.1002978503657798 0.132624531648159 0  0.117375468351841 0.1497021496342203 0  0.1363870506537689 0.1645967731787313 0  0.1570553655912463 0.177091205130642 0  0.1790790225914929 0.187003248537083 0  0.2021368671424885 0.1941883634852104 0  0.2258926639489354 0.1985417748196108 0  0.25 0.2 0  0.2741073360510646 0.1985417748196108 0  0.2978631328575116 0.1941883634852104 0  0.3209209774085071 0.187003248537083 0  0.3429446344087537 0.177091205130642 0  0.3636129493462312 0.1645967731787313 0  0.3826245316481591 0.1497021496342202 0  0.3997021496342202 0.132624531648159 0  0.4145967731787313 0.1136129493462312 0  0.427091205130642 0.09294463440875371 0  0.4370032485370829 0.07092097740850713 0  0.4441883634852104 0.04786313285751155 0  0.4485417748196108 0.02410733605106461 0  0.45 0 0  0.55 0 0  0.5514582251803892 0.02410733605106462 0  0.5558116365147896 0.04786313285751154 0  0.5629967514629171 0.07092097740850717 0  0.5729087948693581 0.09294463440875382 0  0.5854032268212688 0.1136129493462312 0  0.6002978503657798 0.132624531648159 0  0.617375468351841 0.1497021496342203 0  0.6363870506537689 0.1645967731787313 0  0.6570553655912463 0.177091205130642 0  0.6790790225914929 0.187003248537083 0  0.7021368671424885 0.1941883634852104 0  0.7258926639489354 0.1985417748196108 0  0.75 0.2 0  0.7741073360510646 0.1985417748196108 0  0.7978631328575116 0.1941883634852104 0  0.8209209774085071 0.187003248537083 0  0.8429446344087537 0.177091205130642 0  0.8636129493462312 0.1645967731787313 0  0.8826245316481591 0.1497021496342202 0  0.8997021496342202 0.132624531648159 0  0.9145967731787312 0.1136129493462312 0  0.927091205130642 0.09294463440875371 0  0.9370032485370829 0.07092097740850713 0  0.9441883634852104 0.04786313285751155 0  0.9485417748196108 0.02410733605106461 0  0.95 0 0  1 0 0  1 0.3 0  0.9758926639489353 0.3014582251803892 0  0.9521368671424885 0.3058116365147896 0  0.9290790225914928 0.3129967514629171 0  0.9070553655912461 0.3229087948693581 0  0.8863870506537688 0.3354032268212687 0  0.867375468351841 0.3502978503657798 0  0.8502978503657798 0.367375468351841 0  0.8354032268212687 0.3863870506537689 0  0.822908794869358 0.4070553655912464 0  0.8129967514629171 0.4290790225914929 0  0.8058116365147896 0.4521368671424885 0  0.8014582251803892 0.4758926639489354 0  0.8 0.4999999999999999 0  0.8014582251803892 0.5241073360510646 0  0.8058116365147896 0.5478631328575115 0  0.8129967514629171 0.5709209774085071 0  0.8229087948693581 0.5929446344087538 0  0.8354032268212688 0.6136129493462312 0  0.8502978503657798 0.632624531648159 0  0.867375468351841 0.6497021496342202 0  0.8863870506537689 0.6645967731787313 0  0.9070553655912463 0.677091205130642 0  0.9290790225914929 0.6870032485370829 0  0.9521368671424885 0.6941883634852104 0  0.9758926639489354 0.6985417748196108 0  1 0.7 0  1 1 0  0.95 1 0  0.9485417748196108 0.9758926639489353 0  0.9441883634852104 0.9521368671424885 0  0.9370032485370829 0.9290790225914928 0  0.927091205130642 0.9070553655912463 0  0.9145967731787312 0.8863870506537688 0  0.8997021496342201 0.8673754683518409 0  0.882624531648159 0.8502978503657798 0  0.863612949346231 0.8354032268212686 0  0.8429446344087537 0.822908794869358 0  0.8209209774085071 0.8129967514629171 0  0.7978631328575114 0.8058116365147896 0  0.7741073360510646 0.8014582251803892 0  0.75 0.8 0  0.7258926639489353 0.8014582251803892 0  0.7021368671424885 0.8058116365147896 0  0.6790790225914928 0.8129967514629171 0  0.6570553655912461 0.8229087948693581 0  0.6363870506537688 0.8354032268212688 0  0.617375468351841 0.8502978503657798 0  0.6002978503657798 0.867375468351841 0  0.5854032268212687 0.8863870506537689 0  0.572908794869358 0.9070553655912463 0  0.5629967514629171 0.9290790225914929 0  0.5558116365147896 0.9521368671424885 0  0.5514582251803892 0.9758926639489355 0  0.55 0.9999999999999999 0  0.45 0.9999999999999999 0  0.4485417748196108 0.9758926639489353 0  0.4441883634852104 0.9521368671424885 0  0.4370032485370829 0.9290790225914928 0  0.427091205130642 0.9070553655912463 0  0.4145967731787313 0.8863870506537688 0  0.3997021496342201 0.8673754683518409 0  0.382624531648159 0.8502978503657798 0  0.363612949346231 0.8354032268212686 0  0.3429446344087536 0.822908794869358 0  0.3209209774085071 0.8129967514629171 0  0.2978631328575115 0.8058116365147896 0  0.2741073360510646 0.8014582251803892 0  0.25 0.8 0  0.2258926639489353 0.8014582251803892 0  0.2021368671424885 0.8058116365147896 0  0.1790790225914928 0.8129967514629171 0  0.1570553655912462 0.8229087948693581 0  0.1363870506537688 0.8354032268212688 0  0.117375468351841 0.8502978503657798 0  0.1002978503657797 0.867375468351841 0  0.08540322682126869 0.8863870506537689 0  0.07290879486935797 0.9070553655912463 0  0.06299675146291703 0.9290790225914929 0  0.05581163651478957 0.9521368671424885 0  0.0514582251803892 0.9758926639489355 0  0.04999999999999999 0.9999999999999999 0  0 1 0  -0 0.7000000000000001 0  0.0241073360510646 0.6985417748196108 0  0.04786313285751161 0.6941883634852104 0  0.07092097740850711 0.6870032485370829 0  0.09294463440875372 0.677091205130642 0  0.1136129493462312 0.6645967731787312 0  0.1326245316481591 0.6497021496342202 0  0.1497021496342202 0.632624531648159 0  0.1645967731787313 0.6136129493462312 0  0.177091205130642 0.5929446344087537 0  0.187003248537083 0.5709209774085071 0  0.1941883634852104 0.5478631328575115 0  0.1985417748196108 0.5241073360510646 0  0.2 0.5 0  0.1985417748196108 0.4758926639489353 0  0.1941883634852104 0.4521368671424885 0  0.1870032485370829 0.4290790225914928 0  0.177091205130642 0.4070553655912463 0  0.1645967731787313 0.3863870506537688 0  0.1497021496342202 0.3673754683518409 0  0.132624531648159 0.3502978503657798 0  0.113612949346231 0.3354032268212686 0  0.09294463440875361 0.322908794869358 0  0.07092097740850711 0.3129967514629171 0  0.04786313285751148 0.3058116365147896 0  0.02410733605106464 0.3014582251803892 0  0.6985417748196108 0.5241073360510646 0  0.7 0.5 0  0.6985417748196108 0.4758926639489353 0  0.6941883634852104 0.4521368671424885 0  0.6870032485370829 0.4290790225914928 0  0.677091205130642 0.4070553655912463 0  0.6645967731787312 0.3863870506537688 0  0.6497021496342201 0.3673754683518409 0  0.632624531648159 0.3502978503657798 0  0.613612949346231 0.3354032268212686 0  0.5929446344087537 0.322908794869358 0  0.5709209774085071 0.3129967514629171 0  0.5478631328575114 0.3058116365147896 0  0.5241073360510646 0.3014582251803892 0  0.4999999999999999 0.3 0  0.4758926639489353 0.3014582251803892 0  0.4521368671424885 0.3058116365147896 0  0.4290790225914928 0.3129967514629171 0  0.4070553655912462 0.3229087948693581 0  0.3863870506537688 0.3354032268212687 0  0.367375468351841 0.3502978503657798 0  0.3502978503657798 0.367375468351841 0  0.3354032268212687 0.3863870506537689 0  0.322908794869358 0.4070553655912464 0  0.3129967514629171 0.4290790225914929 0  0.3058116365147896 0.4521368671424885 0  0.3014582251803892 0.4758926639489354 0  0.3 0.4999999999999999 0  0.3014582251803892 0.5241073360510646 0  0.3058116365147896 0.5478631328575115 0  0.3129967514629171 0.5709209774085071 0  0.3229087948693581 0.5929446344087538 0  0.3354032268212687 0.6136129493462312 0  0.3502978503657798 0.632624531648159 0  0.367375468351841 0.6497021496342202 0  0.3863870506537689 0.6645967731787313 0  0.4070553655912463 0.677091205130642 0  0.4290790225914929 0.6870032485370829 0  0.4521368671424885 0.6941883634852104 0  0.4758926639489354 0.6985417748196108 0  0.4999999999999999 0.7 0  0.5241073360510646 0.6985417748196108 0  0.5478631328575116 0.6941883634852104 0  0.5709209774085071 0.6870032485370829 0  0.5929446344087537 0.677091205130642 0  0.6136129493462312 0.6645967731787312 0  0.6326245316481591 0.6497021496342202 0  0.6497021496342202 0.632624531648159 0  0.6645967731787312 0.6136129493462312 0  0.677091205130642 0.5929446344087537 0  0.6870032485370829 0.5709209774085071 0  0.6941883634852104 0.5478631328575115 0  0 0.15 0  1 0.15 0  1 0.85 0  0 0.8500000000000001 0  0 0.075 0  1 0.075 0  1 0.925 0  0 0.925 0  0.5 0.8127595604293815 0  0.5069440078039168 0.190422209288238 0  0.25 0.3127595604293815 0  0.756944007803917 0.3095777907117619 0  0.756944007803917 0.6904222092882382 0  0.25 0.6872404395706185 0  0 0.225 0  0.4255768646051012 0.2241073097134061 0  1 0.7749999999999999 0  0.6773391559270888 0.2766774022734219 0  1 0.225 0  0.6755768646051011 0.7241073097134062 0  0 0.7750000000000001 0  0.5818971135297744 0.2287925518358889 0  0.8318971135297746 0.728792551835889 0  0.1659156081861886 0.7301636995921477 0  0.08376842746533225 0.2299656297760495 0  0.4236002201977974 0.7746535834185855 0  0.0840843918138115 0.7698363004078523 0  0.3340843918138113 0.7301636995921477 0  0.3340843918138114 0.2698363004078523 0  0.9159156081861887 0.2301636995921477 0  0.5840843918138116 0.7698363004078522 0  0.1659156081861887 0.2698363004078523 0  0.9162315725346678 0.7700343702239506 0  0.8340843918138114 0.2698363004078523 0  0.75 0.6146645247768686 0  0.5 0.1125158665330878 0  0.75 0.3874841334669124 0  0.2504983345544904 0.6122915843562002 0  0.2504983345544902 0.3877084156437999 0  0.5 0.8879783056303169 0  0.7005361650220154 0.3333055947145943 0  0.70416808765371 0.6599554817221275 0  0.449930214263529 0.1678187287522426 0  0.2247310981387008 0.7415600637745463 0  0.5155081196221678 0.7563797802146907 0  0.2752689018612993 0.2584399362254537 0  0.05605196690611226 0.8246131191226815 0  0.9439480330938878 0.1
[...]
<PointData  Scalars="Temperature"> 
<DataArray  type="Float64"  Name="Temperature"  format="ascii">5.0309463457409906e+08  -2.7564210517778942e+04  -8.2135221609979155e+04  1.3121284753499084e+05  -5.7033564497040701e+05  4.5019919707869096e+06  -1.3110211588511199e+07  1.1406697722230905e+08  1.5554405384921033e+09  -1.2815018539147441e+09  -1.8998257274295349e+11  -2.3063609627361616e+12  -1.7937826003888570e+13  -1.1774917516311762e+14  6.0053667237123825e+14  2.5162886685093635e+15  -2.3399553702185180e+15  4.3383128669075568e+16  -6.2729233880637376e+16  -1.4520315994604541e+17  3.1373786502494525e+18  8.5804445539680594e+18  5.1170411081054781e+18  1.5789371138060173e+19  -8.6037850907245926e+18  -2.0925335770223148e+18  -1.0278291883217240e+18  2.6291394811377213e+17  -2.1126294693674128e+17  -5.1516830782586470e+18  9.4360321087204966e+18  -1.7216065922455843e+19  3.2573010716229534e+20  -1.9140894520860863e+21  -2.1113683683806347e+22  1.4222819459873450e+22  5.6243217708077113e+23  8.2906348920605634e+23  3.4211807231981765e+24  -8.7461137952435499e+24  1.2855706956722258e+26  -1.0529331322674920e+26  2.6897612420437768e+24  4.0559617581453547e+24  2.7339489135970455e+25  -8.6546740657211057e+23  -8.8178613903363066e+24  1.8283890102316145e+23  -5.0523348301420288e+23  2.2916115962061719e+22  -3.3327397452851630e+22  1.0582968195269735e+22  -5.9402500006793590e+20  -2.2488567378794358e+20  -2.0085769365298782e+19  5.3100843915966577e+18  -2.0344126854134448e+17  4.8402969223400257e+25  1.4138788052408673e+26  1.0128197506944686e+27  6.7694041443828097e+27  3.6672228520964459e+28  3.2202351899182723e+29  7.1170490231270660e+29  -3.5693261745981535e+29  6.5278165453839046e+31  -3.4606525034134843e+32  9.6034519734404269e+32  -1.9843176868218587e+34  7.9498549704028910e+34  6.8945414846663258e+35  -4.6979853722874392e+36  1.5167573967987988e+37  -1.0312042324592372e+38  8.7962237299645009e+38  -7.9102447714958012e+38  2.6907565010652788e+40  5.7913799453329395e+41  1.0696069718620196e+42  1.7079057863164343e+43  -2.5382773126238243e+42  -3.0864096452736297e+44  5.9523515773220542e+44  2.1521065482579883e+45  1.4720353682984203e+42  -7.7958532262376161e+42  1.1296379181804675e+43  1.0753399108879396e+43  1.8376609751257379e+44  -2.1375700916170017e+44  1.0297952853171000e+45  -6.3418636616148669e+44  4.9599824909192447e+42  8.0501464957095814e+43  2.6270178059618103e+43  -4.3238517530258071e+42  -4.0745007607800839e+41  -5.7297826722994767e+39  -3.6526114764728574e+39  -1.8181144412360040e+38  -8.8513227474987766e+36  6.5402314872371369e+36  -2.4881296623138025e+35  -1.1236547603951384e+35  3.4199137609781331e+34  -2.0104473426916574e+33  9.3747082095783845e+32  -7.5539459119105868e+31  3.2027109487357504e+31  9.4789866802730556e+29  -2.9614887314576264e+29  -1.7664274341150032e+29  -3.8971967869468379e+27  1.0894293776142654e+27  -1.7887474432441431e+28  2.3013262325996012e+28  2.9546274497524069e+28  1.1783082093813225e+28  -1.4814078977936644e+28  -1.0457143656344479e+28  8.7061148200365936e+26  2.8029886288279750e+26  -5.0246866833423261e+25  1.2636119676861330e+25  -2.0620770376560733e+24  -2.9871206774779735e+23  6.6173178868585390e+22  -1.0659276803911535e+22  -1.3564914630076303e+20  4.6738670508129042e+19  4.8304738014447954e+18  -8.0906561437087800e+15  5.0798421615076200e+16  -3.9382407165596365e+15  -2.5090228814367978e+14  -9.9607823203919859e+13  -2.7234788622305070e+13  -1.2672281463837634e+12  1.9510115881732603e+12  2.0078114717246335e+12  -1.2507164305828535e+15  1.8141880540343880e+15  2.1471929317224168e+16  -7.0088750613372680e+16  -9.8744361463230323e+17  -2.7376241475371633e+18  2.2896950161514242e+19  4.0809572417697251e+19  -1.9861114373308441e+19  9.4121819344608575e+19  1.5798550916683389e+19  -2.5006588340928067e+18  1.8615151213284058e+18  -6.6849752607903066e+17  -2.7184375634660646e+17  4.6197323859134808e+16  -1.1415322613367314e+16  3.2988623478068125e+15  -1.0228687541820485e+15  -1.1694915759155780e+14  5.7437328625632559e+12  -2.0623759322776404e+12  -7.3964649376903149e+11  1.1943216126074099e+10  -1.6618740548108206e+10  -2.2324918003751421e+09  -1.9474198414897579e+33  3.5970449630717796e+34  8.9802895948452213e+32  3.2887467276816438e+33  5.8669925008795001e+31  -2.8283063794716144e+31  4.4586539211539961e+30  -2.9151239086441635e+28  -1.0372166541401592e+29  -3.2701330620014688e+27  -1.3848133100226822e+27  -1.8310999857580483e+25  4.0143223297339300e+25  9.8056437308610421e+24  1.9126832696455216e+23  1.2730167694615205e+23  9.8308867744131889e+21  -7.6911287817228255e+21  -5.7117735317869789e+20  1.0167191339533877e+19  -6.2546206674554583e+18  -4.2448941958656147e+17  2.8828922078673956e+16  -1.0162509966422008e+16  -1.5759048190322836e+16  -2.4404426617284006e+17  1.6410322876635551e+18  -7.3914213748785807e+18  5.6181222439937499e+19  -7.2978320144408633e+19  -3.6771746945528037e+20  -4.0068477769721970e+22  1.0632966425793993e+22  4.6534623147192295e+24  -2.0409937084507790e+25  -7.4189619434752775e+25  1.9778443614971540e+27  7.7883331379369503e+27  3.5024181504096756e+28  3.9489749679141875e+28  2.5832441982975405e+30  4.0440211206570701e+30  3.8339762948694509e+32  -5.6329868089706976e+32  1.7895993119311401e+34  -1.7282679148848445e+34  -6.1886068291589006e+34  -9.8095546497798417e+34  -4.9521519414101812e+33  -3.4501936211209867e+35  5.4993666546702962e+35  4.3882950888462676e+34  -7.0389814263324402e+06  -4.9582306064866988e+22  -1.6466722960790769e+47  1.3320193772578836e+14  -2.0968537645317436e+04  1.4871632034976662e+20  -3.1799285949422463e+44  -2.6971959772007367e+13  -1.1772574869933674e+31  9.6172836363594430e+21  -1.7973860079438056e+14  -3.3166985096387698e+29  5.9835573898416769e+38  6.5124493634343293e+22  4.7697950441758022e+07  -4.9248577521753555e+20  -1.5824291864265877e+47  1.6997628416505553e+26  3.7760931137229680e+24  2.0032828785600343e+36  3.5075592869469760e+15  -3.9397868139121267e+24  5.8819520021676187e+41  2.4257325578962235e+19  9.1999899339415512e+09  -4.7015977479424483e+28  1.8215202496931539e+17  2.7739670234715682e+25  -2.9906757754970778e+18  9.5069551763793203e+25  1.7513466985471985e+34  1.4272840547116301e+13  1.0858662371745317e+45  5.3037025901366395e+26  -3.3593671570803281e+37  -1.9392141051383176e+20  -1.0655062937327404e+31  1.0140082347297481e+22  -1.7735111171496050e+15  -2.1778685859604220e+30  -7.9974045124564852e+28  3.7779598359875056e+36  2.5715021656091699e+20  5.0902023418879377e+19  2.3910421762858089e+31  -7.4875870763041728e+16  1.6642635360222152e+16  -1.0653734314606692e+23  1.1716459655812588e+08  1.7444488341423022e+46  -3.8488393244799184e+22  2.5279964884222681e+38  -1.4850594949999286e+27  -2.3172197474441204e+29  7.0879641486264867e+20  1.5513268803967420e+13  7.3874529551813432e+23  5.7260404849215856e+16  -4.4738529342851014e+31  3.2054598740201124e+18  -5.1444014209785285e+32  9.3895840053620510e+35  -2.7840667773706088e+16  6.9972735394624332e+19  3.3156642997122854e+27  4.1949726179392251e+29  -1.2517509672043425e+15  -2.1914809214397271e+23  -1.6315508301364770e+23  3.4291796714396502e+39  -6.7379552866476848e+29  -5.4029291792400002e+25  -2.8935749774572123e+20  -1.3079479073438046e+19  1.2787125675916817e+36  -3.2717720171375567e+34  -1.2297838748766346e+27  1.2672951256190970e+40  1.1902220030768382e+27  -9.7084538407093918e+34  -6.9121536418630912e+17  -7.2658089444631091e+18  9.9423177709343706e+26  1.4158420338336880e+27  -8.4491648450902556e+23  1.9945088686867070e+43  2.6199696927850209e+43  -5.4738726815477957e+30  -3.3630291504200558e+10  -1.8648883656300020e+15  -6.2430772777807772e+25  1.9911659421398770e+19  -1.7800159834717424e+12  2.8346609428080113e+18  1.1322852126658723e+25  -8.5915564874794017e+25  1.6002993439105446e+45  -8.6031057261644816e+08  -1.3430407189554209e+22  8.0632303562185375e+45  6.3229329938750472e+06  5.9566308757086962e+14  -4.0580846457244647e+31  6.2070326311697460e+40  -8.9059788434760721e+21  2.8350859534757114e+37  -5.3519957504802982e+34  5.7561930680967985e+25  -1.2416381094774653e+12  5.6113666272279613e+24  -4.7710045735965655e+18  -6.9076270793440764e+19  9.2154071139933107e+17  -1.7635351991471928e+10  1.7815862852870720e+44  2.1465532741044921e+21  -1.4738194805183549e+13  -5.5262923655218541e+31  6.4766508543954639e+41  2.2318431566011405e+15  4.8688941600954074e+22  -5.0774624219327285e+26  3.3918449744783052e+28  -2.1589635693179139e+27  -8.9899242860057492e+21  4.6089551153983675e+35  3.4408416846283100e+18  3.3482196633268352e+37  -1.1974403950184104e+29  1.6363877744438248e+29  -4.2004082199650758e+25  2.3788669557906405e+27  2.2829931986201827e+41  2.0071032126490674e+24  2.0819673068585408e+21  -7.5569444309782810e+17  8.8543566714971302e+24  -5.3048115004587547e+13  -1.0498000243939125e+29  1.2658385728930694e+33  -8.6040752406387795e+21  4.9871275586947316e+08  -1.8047462290526206e+26  -2.6955622911731439e+24  1.2544969945612888e+16  -8.0054303846596266e+31  1.4489175090202582e+15  -5.5013250126284801e+22  2.2253515138983379e+28  -2.6189848249422820e+45  4.6108294559999230e+19  1.4128877392265505e+30  9.2826829156237903e+30  9.1640018174123088e+20  2.6151931061028309e+07  -1.4854112612184060e+37  -1.7074243202235340e+36  -1.9880127322022481e+38  -5.4815399040334553e+19  1.4326699338264752e+15  5.9909361392669308e+22  3.2393160945559620e+15  1.1379520738332029e+17  -5.8413568833302323e+18  -4.8485896716580905e+19  2.7224333793744510e+32  2.3314709029804855e+31  -7.0168005361086695e+31  -2.9150806532330026e+30  -4.5036696944287951e+29  1.9856123779048799e+48  -7.5615330803234212e+14  1.4467635683697708e+46  -5.9796894530848505e+23  9.0122491303083450e+07  2.8049221675858801e+19  -1.3965604266372632e+05  -2.0428541310138169e+21  -1.3597764799993052e+21  -1.0587639457311814e+06  -1.9070916412408312e+43  -3.5932790747879559e+11  -2.6348487293840494e+45  2.0800415536024084e+14  -1.4071048056497553e+14  -6.6949380944857530e+15  2.5345124858086970e+21  1.0246945189734872e+22  -1.3810524384023677e+17  -1.8781899145134299e+30  2.9714614583848939e+44  3.8028736128471374e+23  1.3124832741811023e+14  6.4479772482827077e+39  2.2055124644366943e+37  1.0028730091386500e+30  2.7314064868924964e+46  1.1226416268540997e+33  -1.5891773557616500e+23  1.2791110089024276e+22  5.4246052808215606e+14  6.4566569250692590e+11  -1.5920426115210232e+26  -1.3273719403203004e+22  1.0531885472181163e+28  -4.2153143673244982e+30  1.7032291455865628e+32  1.1516070091037829e+36  4.0315257345063186e+35  -3.8158729575499822e+45  -1.9144942503092403e+06  -3.1926512512431049e+11  4.1070050125535415e+40  5.6303905705420433e+23  4.8917674747002075e+14  1.3978447314293112e+26  -2.5241826393967156e+23  -1.3872667736055466e+37  -2.5196299929505835e+26  2.1284677350162865e+30  -9.6117056653062668e+19  6.2784325453405568e+34  1.8396259995354976e+28  -1.4963759207777618e+05  -1.8149048829089343e+20  -1.3720238545002618e+44  3.1524131457444105e+13  -7.6632797336660455e+26  -1.0094452057988755e+36  -8.8031317141315608e+21  -3.2646248871012030e+15  4.0083289480124280e+15  -6.6361152875238508e+22  7.3805736801015316e+21  8.9041366746336523e+25  2.7561064713050342e+08  -1.4541443354187217e+09  1.6604170481398467e+07  3.9453088181212717e+19  -7.9971523946464123e+20  -1.5137801533872145e+10  -9.3151733468495122e+29  -8.3634894673567309e+17  7.5485646465214024e+18  -1.7674296055993431e+25  -2.1549684341159405e+27  4.1433233644231386e+26  -1.1156920540365620e+18  4.0061355774476473e+34  -8.4437254677799679e+46  -1.1442484383298031e+36  1.0849371457026643e+38  -6.2276259169235117e+23  5.2482661089597911e+29  -8.6439098451466589e+29  9.8699914171102566e+17  2.2044891872728105e+18  1.1034459169911213e+34  9.5277490194029871e+32  -3.8930483956480819e+17  -2.6197836936429392e+17  -3.5656325274739456e+27  5.2964824724708966e+42  2.0334256471849965e+28  -6.2540724900466160e+24  -3.8113443882142106e+17  3.6118166146854308e+26  2.6896169684172441e+13  -3.5909661206974412e+23  1.5278022609506193e+22  -6.5173786894179933e+20  -3.1970531213225128e+16  -9.2815511325511580e+15  5.1704408083617733e+22  -2.4780953425338551e+33  4.0326538565874801e+32  -1.3249073359102374e+16  -4.1445341601760110e+20  -7.5241899141973696e+16  -8.1344713782839775e+12  -2.0018995216100357e+24  2.3536884534292972e+20  -1.3907911997600399e+32  -1.7213342333374516e+35  6.5710904302860386e+35  -1.7735319597912760e+19  -7.7385489386630472e+18  -1.1788186938198958e+12  3.8174147000436324e+37  2.4485754167014843e+38  4.0745020791803244e+38  -2.4264552004566605e+21  8.6318710584764270e+36  -1.4903013710857773e+31  8.0828486304266437e+19  2.4940046698835799e+28  1.1714677002073863e+29  7.4114107741322769e+29  -1.3067641486967517e+23  -4.0818898573454112e+22  -5.3466940760153895e+26  3.9372820116307381e+26  1.2038985377129506e+46  3.7775484890634479e+11  1.5817155355564421e+30  -6.0132559412772471e+22  4.0893351170147069e+42  -4.1012219675868793e+42  4.4788391967167610e+28  1.2876061810542879e+28  -6.7676502665673514e+25  1.9854039863561444e+20  -8.6719459145825997e+18  -9.4921588190561464e+18  -3.4018343344955040e+35  5.9363840881796843e+34  -3.3129409725450625e+27  -1.7422793919521395e+24  -1.4320276027261817e+21  1.7548000344403925e+24  3.6538493312733851e+26  -5.6398701999067270e+36  4.4449138021931551e+24  1.6759826332497152e+17  -8.5056074038151118e+24  -4.0236346883060328e+42  -2.7729842985548032e+18  -1.6311527146386175e+04  7.0530732011568188e+11  7.8323793508002483e+21  1.1374032817805635e+26  1.2661436350053366e+18  -2.8481078485758591e+28  3.4432355002450838e+36  -1.3900765024549978e+28  1.1716191792479203e+19  -1.3670167080036342e+18  -1.7185926163094168e+16  2.0804043824036500e+26  2.2042959551668873e+42  1.2197307893982720e+43  1.4782240164622164e+44  2.3065050174504917e+42  -3.0489084046056364e+33  -5.9746098520663565e+17  3.3502364071951276e+20  2.1888250984009598e+28  1.4867786802458637e+28  1.0336075122275112e+29  1.4105931996240970e+34  1.7656609381218419e+37  2.7138427739564667e+19  1.9467250500241437e+20  1.2977363128803816e+12  -1.9862585615480822e+17  4.6775711343460633e+27  1.3729673985847227e+11  8.6819840443075621e+21  6.9224855666710860e+25  1.5591425103095744e+32  1.8803315587416571e+08  5.2061837152083411e+19  5.6129221275735954e+39  1.6919547609884133e+39  1.8024908707538077e+45  1.3431373131889785e+24  -1.4471456234645638e+14  9.4773049746869659e+23  1.8757708366514520e+20  3.1156678436043600e+19  4.2726503451186586e+18  -1.1433980834697610e+18  7.0594415581393060e+33  -1.8626406063640967e+07  -4.4660081909605314e+43  3.1365035504812356e+16  3.7561397447227194e+27  4.1998478862876680e+15  -3.7459193037394222e+23  5.5604773019194095e+38  1.1736482214304894e+29  -1.5410829615383818e+18  -1.9165668999013805e+33  1.4615966634085425e+12  5.6077272652061546e+29  3.4852632594280905e+46  3.8872779193694547e+17  4.5121291110631879e+26  -1.7100020258568556e+16  4.3933884442241219e+25  1.1408953888309035e+19  1.2606655488345129e+19  -3.0329299181073403e+12  -9.1760051719044786e+03  -2.0636932732148875e+43  2.2691057128630406e+22  7.3233831407651931e+30  3.3117171810473251e+43  -7.4730179617351967e+26  -1.9143590260441339e+18  -6.7995749030674776e+25  5.8437842395268829e+26  1.4857662961787302e+34  1.3670325032419651e+09  2.7665802382331892e+19  -1.6938074771210275e+17  2.9380737411792854e+23  2.1971126702315298e+27  -1.3181021880748668e+26  3.0888881779138846e+26  1.2769418944826716e+16  7.6729075316993442e+25  1.0184890301544880e+16  -2.0963957683903259e+32  1.2176967110747689e+23  -3.1378137433467915e+15  -2.6589390806882415e+21  3.7642870187993472e+40  -2.0769886269374019e+14  1.9087422989756568e+28  1.2794122077569099e+41  2.7523648410921019e+39  2.4383283412844675e+39  -2.8944586114656780e+28  -6.9972926451371671e+28  5.2354008432528921e+45  -6.5039017127130785e+20  -5.9869923100884906e+13  2.4220527293662739e+24  -2.9165661528965077e+30  -1.8644076319315670e+36  3.3029257135064999e+22  8.3579139929268442e+17  9.9900913705692760e+46  -3.0916171492785168e+16  -1.2898036357451198e+23  -9.1035290795950490e+17  -4.0875412627646205e+27  5.5451601240258680e+16  -1.7022801985847935e+20  4.5674809771875859e+12  5.2775667442547642e+23  1.1991392043041661e+17  -9.7076232582377360e+16  -3.9140253366844033e+25  -1.3090423438269398e+24  8.6253151731492474e+24  -1.6484332585454257e+45  1.3919493566038787e+08  1.5212809964418206e+24  1.0519936853668002e+15  -9.0722830574601866e+30  -4.0646645954805585e+23  -5.2888755474887477e+24  1.3786010473581222e+26  -3.0781635041705190e+22  -1.8921647341923975e+15  -1.2186902576059500e+16  2.5412186012524966e+28  7.4652670094975475e+14  -2.1637950574371242e+20  -7.8514121611426308e+41  1.6093035403835901e+21  6.3264242432712026e+28  8.7353887876478256e+10  3.3997561939580134e+27  1.4641931858319010e+13  1.0918902646813684e+12  -3.9806487158409603e+44  -8.8356466551779433e+44  -1.8496316645060092e+08  3.3356167307518597e+09  4.3251049601484284e+19  -1.7564217077197507e+28  6.2076587583529998e+32  2.7178854319937222e+31  -7.7278925593866996e+29  8.4438050135524223e+30  2.9518637568418275e+27  -6.0251698917934163e+47  1.3666185712864469e+32  -3.1220833005602890e+27  3.5491849688292372e+16  -1.2072857669838154e+18  -5.5405548220333259e+30  -1.1213452998717516e+34  -8.9156273873209109e+30  -3.5524739960454522e+28  -9.5624875592714721e+37  -1.5321361431459052e+16  1.8512662372840767e+19  1.4157355409233386e+16  2.5085537677331792e+20  9.9997757243364024e+21  -4.4114580793432319e+14  1.6086231245551948e+46  -3.0608687894883943e+06  -1.3515314626566222e+07  -7.9155229200250536e+07  2.0314468153969783e+45  -7.1500527998655006e+44  1.9675854359409553e+41  2.1165255804962480e+22  1.8030363285906551e+40  -1.8772765707481737e+20  -3.2217259231672715e+38  -4.4873943345530904e+22  5.4095053853197725e+21  3.1199478231530560e+15  -9.3095101536862828e+13  3.9871229591098106e+14  2.9159906757569831e+30  2.0390898486893635e+07  -3.9312379512089619e+14  -7.8631280347974690e+20  6.7289695186856351e+44  -1.8982546872561429e+22  1.1293710586972146e+28  -2.1364623010378178e+25  2.1887418457393925e+14  3.7738823506338169e+22  -4.6548147667707607e+24  8.0968887869974825e+14  -1.3368970030972993e+35  1.2031071036689043e+40  3.9714945004836086e+39  2.9126908438502236e+41  -6.9483200364357175e+14  -4.8429893328979016e+30  -2.0632417760355209e+10  1.1669975406558870e+41  -1.0989728632773332e+18  -1.7620219218340284e+24  1.2533727903617943e+21  4.5100711859407588e+22  9.3621542907073289e+46  6.8979993824399758e+29  -1.2191981101910646e+09  2.4408080396794758e+39  2.8265233327134505e+18  -4.4801281529287196e+35  -4.1894031202771103e+18  1.3078959936317270e+24  2.2966684093332225e+35  -6.1709936125090219e+30  1.4934779887607641e+33  4.5573984943336426e+31  -1.0002613407863115e+13  -1.9571024080720133e+18  2.1183554720424476e+25  8.4202356775988154e+30  2.6671235013769301e+29  3.0999792796690757e+29  -3.2837752880049253e+29  1.3659890402730819e+31  -1.3918718237166443e+20  -7.9834928824116972e+18  -7.2094798990594982e+25  -2.6102573744882540e+25  -1.5999769123902560e+15  2.8228134789764816e+26  -2.2800050725756935e+15  -2.8788234938476858e+22  -1.0394190088669875e+20  -3.6531182310434007e+20  -2.9630473831963361e+20  -7.3504264893909778e+23  9.8499851534033592e+27  5.1549268128344645e+36  -1.3985568967135204e+36  7.9129827144735812e+37  2.1136125534604209e+29  7.5120913345863874e+44  -5.3307828849148286e+23  -8.9783552022680347e+27  -4.0792917056641365e+10  -1.4391265348919566e+09  1.3308924293342888e+12  1.0682990691847178e+26  -1.5003137242492154e+25  1.6655044196044027e+25  -4.0423868794289771e+31  1.6738390826853776e+34  -9.9497408613405449e+12  5.4835961205513646e+18  -2.1403320817253773e+44  -4.1212299117870390e+22  2.5860704363717035e+21  -1.0989232645132585e+27  -1.8554801966849778e+14  4.8025922602916628e+34  6.8927426291849265e+19  -8.6451806775130349e+35  -6.1495055674056161e+18  -1.0660878306855409e+28 