<?xml version="1.0"?>
<VTKFile type="UnstructuredGrid"  version="0.1"  >
<UnstructuredGrid>
<Piece  NumberOfPoints="2331" NumberOfCells="4248">
<Points>
<DataArray  type="Float64"  NumberOfComponents="3"  format="ascii">0 0.3 0  0 0 0  0.04999999999999999 0 0  0.0514582251803892 0.02410733605106462 0  0.0558116365147896 0.04786313285751154 0  0.06299675146291706 0.07092097740850717 0  0.07290879486935808 0.09294463440875382 0  0.08540322682126872 0.1136129493462312 0  0.1002978503657798 0.132624531648159 0  0.117375468351841 0.1497021496342203 0  0.1363870506537689 0.1645967731787313 0  0.1570553655912463 0.177091205130642 0  0.1790790225914929 0.187003248537083 0  0.2021368671424885 0.1941883634852104 0  0.2258926639489354 0.1985417748196108 0  0.25 0.2 0  0.2741073360510646 0.1985417748196108 0  0.2978631328575116 0.1941883634852104 0  0.3209209774085071 0.187003248537083 0  0.3429446344087537 0.177091205130642 0  0.3636129493462312 0.1645967731787313 0  0.3826245316481591 0.1497021496342202 0  0.3997021496342202 0.132624531648159 0  0.4145967731787313 0.1136129493462312 0  0.427091205130642 0.09294463440875371 0  0.4370032485370829 0.07092097740850713 0  0.4441883634852104 0.04786313285751155 0  0.4485417748196108 0.02410733605106461 0  0.45 0 0  0.55 0 0  0.5514582251803892 0.02410733605106462 0  0.5558116365147896 0.04786313285751154 0  0.5629967514629171 0.07092097740850717 0  0.5729087948693581 0.09294463440875382 0  0.5854032268212688 0.1136129493462312 0  0.6002978503657798 0.132624531648159 0  0.617375468351841 0.1497021496342203 0  0.6363870506537689 0.1645967731787313 0  0.6570553655912463 0.177091205130642 0  0.6790790225914929 0.187003248537083 0  0.7021368671424885 0.1941883634852104 0  0.7258926639489354 0.1985417748196108 0  0.75 0.2 0  0.7741073360510646 0.1985417748196108 0  0.7978631328575116 0.1941883634852104 0  0.8209209774085071 0.187003248537083 0  0.8429446344087537 0.177091205130642 0  0.8636129493462312 0.1645967731787313 0  0.8826245316481591 0.1497021496342202 0  0.8997021496342202 0.132624531648159 0  0.9145967731787312 0.1136129493462312 0  0.927091205130642 0.09294463440875371 0  0.9370032485370829 0.07092097740850713 0  0.9441883634852104 0.04786313285751155 0  0.9485417748196108 0.02410733605106461 0  0.95 0 0  1 0 0  1 0.3 0  0.9758926639489353 0.3014582251803892 0  0.9521368671424885 0.3058116365147896 0  0.9290790225914928 0.3129967514629171 0  0.9070553655912461 0.3229087948693581 0  0.8863870506537688 0.3354032268212687 0  0.867375468351841 0.3502978503657798 0  0.8502978503657798 0.367375468351841 0  0.8354032268212687 0.3863870506537689 0  0.822908794869358 0.4070553655912464 0  0.8129967514629171 0.4290790225914929 0  0.8058116365147896 0.4521368671424885 0  0.8014582251803892 0.4758926639489354 0  0.8 0.4999999999999999 0  0.8014582251803892 0.5241073360510646 0  0.8058116365147896 0.5478631328575115 0  0.8129967514629171 0.5709209774085071 0  0.8229087948693581 0.5929446344087538 0  0.8354032268212688 0.6136129493462312 0  0.8502978503657798 0.632624531648159 0  0.867375468351841 0.6497021496342202 0  0.8863870506537689 0.6645967731787313 0  0.9070553655912463 0.677091205130642 0  0.9290790225914929 0.6870032485370829 0  0.9521368671424885 0.6941883634852104 0  0.9758926639489354 0.6985417748196108 0  1 0.7 0  1 1 0  0.95 1 0  0.9485417748196108 0.9758926639489353 0  0.9441883634852104 0.9521368671424885 0  0.9370032485370829 0.9290790225914928 0  0.927091205130642 0.9070553655912463 0  0.9145967731787312 0.8863870506537688 0  0.8997021496342201 0.8673754683518409 0  0.882624531648159 0.8502978503657798 0  0.863612949346231 0.8354032268212686 0  0.8429446344087537 0.822908794869358 0  0.8209209774085071 0.8129967514629171 0  0.7978631328575114 0.8058116365147896 0  0.7741073360510646 0.8014582251803892 0  0.75 0.8 0  0.7258926639489353 0.8014582251803892 0  0.7021368671424885 0.8058116365147896 0  0.6790790225914928 0.8129967514629171 0  0.6570553655912461 0.8229087948693581 0  0.6363870506537688 0.8354032268212688 0  0.617375468351841 0.8502978503657798 0  0.6002978503657798 0.867375468351841 0  0.5854032268212687 0.8863870506537689 0  0.572908794869358 0.9070553655912463 0  0.5629967514629171 0.9290790225914929 0  0.5558116365147896 0.9521368671424885 0  0.5514582251803892 0.9758926639489355 0  0.55 0.9999999999999999 0  0.45 0.9999999999999999 0  0.4485417748196108 0.9758926639489353 0  0.4441883634852104 0.9521368671424885 0  0.4370032485370829 0.9290790225914928 0  0.427091205130642 0.9070553655912463 0  0.4145967731787313 0.8863870506537688 0  0.3997021496342201 0.8673754683518409 0  0.382624531648159 0.8502978503657798 0  0.363612949346231 0.8354032268212686 0  0.3429446344087536 0.822908794869358 0  0.3209209774085071 0.8129967514629171 0  0.2978631328575115 0.8058116365147896 0  0.2741073360510646 0.8014582251803892 0  0.25 0.8 0  0.2258926639489353 0.8014582251803892 0  0.2021368671424885 0.8058116365147896 0  0.1790790225914928 0.8129967514629171 0  0.1570553655912462 0.8229087948693581 0  0.1363870506537688 0.8354032268212688 0  0.117375468351841 0.8502978503657798 0  0.1002978503657797 0.867375468351841 0  0.08540322682126869 0.8863870506537689 0  0.07290879486935797 0.9070553655912463 0  0.06299675146291703 0.9290790225914929 0  0.05581163651478957 0.9521368671424885 0  0.0514582251803892 0.9758926639489355 0  0.04999999999999999 0.9999999999999999 0  0 1 0  -0 0.7000000000000001 0  0.0241073360510646 0.6985417748196108 0  0.04786313285751161 0.6941883634852104 0  0.07092097740850711 0.6870032485370829 0  0.09294463440875372 0.677091205130642 0  0.1136129493462312 0.6645967731787312 0  0.1326245316481591 0.6497021496342202 0  0.1497021496342202 0.632624531648159 0  0.1645967731787313 0.6136129493462312 0  0.177091205130642 0.5929446344087537 0  0.187003248537083 0.5709209774085071 0  0.1941883634852104 0.5478631328575115 0  0.1985417748196108 0.5241073360510646 0  0.2 0.5 0  0.1985417748196108 0.4758926639489353 0  0.1941883634852104 0.4521368671424885 0  0.1870032485370829 0.4290790225914928 0  0.177091205130642 0.4070553655912463 0  0.1645967731787313 0.3863870506537688 0  0.1497021496342202 0.3673754683518409 0  0.132624531648159 0.3502978503657798 0  0.113612949346231 0.3354032268212686 0  0.09294463440875361 0.322908794869358 0  0.07092097740850711 0.3129967514629171 0  0.04786313285751148 0.3058116365147896 0  0.02410733605106464 0.3014582251803892 0  0.6985417748196108 0.5241073360510646 0  0.7 0.5 0  0.6985417748196108 0.4758926639489353 0  0.6941883634852104 0.4521368671424885 0  0.6870032485370829 0.4290790225914928 0  0.677091205130642 0.4070553655912463 0  0.6645967731787312 0.3863870506537688 0  0.6497021496342201 0.3673754683518409 0  0.632624531648159 0.3502978503657798 0  0.613612949346231 0.3354032268212686 0  0.5929446344087537 0.322908794869358 0  0.5709209774085071 0.3129967514629171 0  0.5478631328575114 0.3058116365147896 0  0.5241073360510646 0.3014582251803892 0  0.4999999999999999 0.3 0  0.4758926639489353 0.3014582251803892 0  0.4521368671424885 0.3058116365147896 0  0.4290790225914928 0.3129967514629171 0  0.4070553655912462 0.3229087948693581 0  0.3863870506537688 0.3354032268212687 0  0.367375468351841 0.3502978503657798 0  0.3502978503657798 0.367375468351841 0  0.3354032268212687 0.3863870506537689 0  0.322908794869358 0.4070553655912464 0  0.3129967514629171 0.4290790225914929 0  0.3058116365147896 0.4521368671424885 0  0.3014582251803892 0.4758926639489354 0  0.3 0.4999999999999999 0  0.3014582251803892 0.5241073360510646 0  0.3058116365147896 0.5478631328575115 0  0.3129967514629171 0.5709209774085071 0  0.3229087948693581 0.5929446344087538 0  0.3354032268212687 0.6136129493462312 0  0.3502978503657798 0.632624531648159 0  0.367375468351841 0.6497021496342202 0  0.3863870506537689 0.6645967731787313 0  0.4070553655912463 0.677091205130642 0  0.4290790225914929 0.6870032485370829 0  0.4521368671424885 0.6941883634852104 0  0.4758926639489354 0.6985417748196108 0  0.4999999999999999 0.7 0  0.5241073360510646 0.6985417748196108 0  0.5478631328575116 0.6941883634852104 0  0.5709209774085071 0.6870032485370829 0  0.5929446344087537 0.677091205130642 0  0.6136129493462312 0.6645967731787312 0  0.6326245316481591 0.6497021496342202 0  0.6497021496342202 0.632624531648159 0  0.6645967731787312 0.6136129493462312 0  0.677091205130642 0.5929446344087537 0  0.6870032485370829 0.5709209774085071 0  0.6941883634852104 0.5478631328575115 0  0 0.15 0  1 0.15 0  1 0.85 0  0 0.8500000000000001 0  0 0.075 0  1 0.075 0  1 0.925 0  0 0.925 0  0.5 0.8127595604293815 0  0.5069440078039168 0.190422209288238 0  0.25 0.3127595604293815 0  0.756944007803917 0.3095777907117619 0  0.756944007803917 0.6904222092882382 0  0.25 0.6872404395706185 0  0 0.225 0  0.4255768646051012 0.2241073097134061 0  1 0.7749999999999999 0  0.6773391559270888 0.2766774022734219 0  1 0.225 0  0.6755768646051011 0.7241073097134062 0  0 0.7750000000000001 0  0.5818971135297744 0.2287925518358889 0  0.8318971135297746 0.728792551835889 0  0.1659156081861886 0.7301636995921477 0  0.08376842746533225 0.2299656297760495 0  0.4236002201977974 0.7746535834185855 0  0.0840843918138115 0.7698363004078523 0  0.3340843918138113 0.7301636995921477 0  0.3340843918138114 0.2698363004078523 0  0.9159156081861887 0.2301636995921477 0  0.5840843918138116 0.7698363004078522 0  0.1659156081861887 0.2698363004078523 0  0.9162315725346678 0.7700343702239506 0  0.8340843918138114 0.2698363004078523 0  0.75 0.6146645247768686 0  0.5 0.1125158665330878 0  0.75 0.3874841334669124 0  0.2504983345544904 0.6122915843562002 0  0.2504983345544902 0.3877084156437999 0  0.5 0.8879783056303169 0  0.7005361650220154 0.3333055947145943 0  0.70416808765371 0.6599554817221275 0  0.449930214263529 0.1678187287522426 0  0.2247310981387008 0.7415600637745463 0  0.5155081196221678 0.7563797802146907 0  0.2752689018612993 0.2584399362254537 0  0.05605196690611226 0.8246131191226815 0  0.9439480330938878 0.1
[...]
<PointData  Scalars="Temperature"> 
<DataArray  type="Float64"  Name="Temperature"  format="ascii">-7.8023323136198623e+12  4.2798089463457334e+08  1.2743050293680353e+09  -2.0344419554903936e+09  8.8456465984971771e+09  -6.9819452064726166e+10  2.0332254234447025e+11  -1.7690275553893164e+12  -2.4122826270477625e+13  1.9874400326726965e+13  2.9463785825111025e+15  3.5768609957410264e+16  2.7819197089103296e+17  1.8261340645334853e+18  -9.3135299920290918e+18  -3.9024311188573659e+19  3.6289614811514573e+19  -6.7281498132679557e+20  9.7284750124833728e+20  2.2519090795157363e+21  -4.8656595841308166e+22  -1.3307135329934847e+23  -7.9358543821496243e+22  -2.4487227577453128e+23  1.3343333417264585e+23  3.2452429844082219e+22  1.5940272114140134e+22  -4.0774478124906436e+21  3.2764090571367435e+21  7.9895794988407658e+22  -1.4634038534784931e+23  2.6699842605853395e+23  -5.0516434081941914e+24  2.9684997335867886e+25  3.2744532562000636e+26  -2.2057712993231807e+26  -8.7225796370451804e+27  -1.2857678851698828e+28  -5.3057990859819429e+28  1.3564066424797613e+29  -1.9937502207385574e+30  1.6329601102050121e+30  -4.1714641506000875e+28  -6.2902605650801407e+28  -4.2399933884008064e+29  1.3422255490919362e+28  1.3675337461104813e+29  -2.8355896762557665e+27  7.8355034979803671e+27  -3.5539866777952579e+26  5.1686388194715104e+26  -1.6412784801659682e+26  9.2125425618104753e+24  3.4876795439180498e+24  3.1150373324920994e+23  -8.2352389981558129e+22  3.1551051640108095e+21  -7.5066607303999059e+29  -2.1927391387624394e+30  -1.5707495576192862e+31  -1.0498451040123000e+32  -5.6873779057646941e+32  -4.9941591250821229e+33  -1.1037602294945709e+34  5.5355530990629849e+33  -1.0123780607409152e+36  5.3670145996694676e+36  -1.4893684615210559e+37  3.0774144428111642e+38  -1.2329174237899291e+39  -1.0692522514101699e+40  7.2859543271766868e+40  -2.3522902356553612e+41  1.5992614587539840e+42  -1.3641780309959621e+43  1.2267744055117124e+43  -4.1730076657880047e+44  -8.9816647837874905e+45  -1.6588190314483614e+46  -2.6487361215778966e+47  3.9365325993940230e+46  4.7866133945564412e+48  -9.2313105075826505e+48  -3.3376327883692310e+49  -2.2829322808616835e+46  1.2090337888830932e+47  -1.7519190942270715e+47  -1.6677100620909322e+47  -2.8499692682274093e+48  3.3150886655650253e+48  -1.5970763679728242e+49  9.8353922641546254e+48  -7.6922772270867325e+46  -1.2484713136998024e+48  -4.0741573747383253e+47  6.7057225371244521e+46  6.3190121076592428e+45  8.8861355553126420e+43  5.6647175935213807e+43  2.8196551778483111e+42  1.3727231603102216e+41  -1.0143034541201886e+41  3.8587602223387289e+39  1.7426400073628682e+39  -5.3038341950472055e+38  3.1179380852165205e+37  -1.4538933273080716e+37  1.1715171619903488e+36  -4.9669813433828758e+35  -1.4700655397477048e+34  4.5928775694213659e+33  2.7394954618531247e+33  6.0440370804920199e+31  -1.6895609626211541e+31  2.7741108457273227e+32  -3.5690527947494017e+32  -4.5822366284288747e+32  -1.8274002825831718e+32  2.2974678352368219e+32  1.6217647573422402e+32  -1.3502033301363322e+31  -4.3470648609730740e+30  7.7926248768586387e+29  -1.9596951361626614e+29  3.1980089176324336e+28  4.6326293296381086e+27  -1.0262585357643555e+27  1.6531129367101322e+26  2.1037389564851881e+24  -7.2485499985578165e+23  -7.4914263683230937e+22  1.2547538246432018e+20  -7.8781637329769320e+20  6.1076907900865642e+19  3.8911628435084692e+18  1.5447856750989870e+18  4.2237557226784640e+17  1.9653033513663704e+16  -3.0257610862122024e+16  -3.1138501977248588e+16  1.9396958626628002e+19  -2.8135658702930493e+19  -3.3300124186101763e+20  1.0869838778771445e+21  1.5313945248344270e+22  4.2456931904451691e+22  -3.5510143154661726e+23  -6.3290252562489116e+23  3.0801963127505477e+23  -1.4597050067052358e+24  -2.4501464200703700e+23  3.8781913116472907e+22  -2.8869638959186106e+22  1.0367513001580351e+22  4.2159373346561689e+21  -7.1645942888825985e+20  1.7703656482541486e+20  -5.1160994539368399e+19  1.5863342337394434e+19  1.8137268494712307e+18  -8.9077704564148352e+16  3.1984724637273732e+16  1.1470939445366780e+16  -1.8522349496755388e+14  2.5773469952257778e+14  3.4622997361102020e+13  3.0201907619018216e+37  -5.5785412760834871e+38  -1.3927242136346748e+37  -5.1004114642173441e+37  -9.0989298628835114e+35  4.3863293456912448e+35  -6.9147828815818635e+34  4.5209718577945385e+32  1.6085859300521161e+33  5.0715441291236553e+31  2.1476623975904384e+31  2.8397940409574362e+29  -6.2256833155625818e+29  -1.5207257305025282e+29  -2.9663189304923249e+27  -1.9742807405785113e+27  -1.5246405928919434e+26  1.1927924117988936e+26  8.8582057588472130e+24  -1.5767969856288003e+23  9.7000899120951267e+22  6.5832698026719057e+21  -4.4709847503139845e+20  1.5760709665380847e+20  2.4440200693635803e+20  3.7848039877547398e+21  -2.5450241645851626e+22  1.1463117545651918e+23  -8.7129649904177398e+23  1.1317972818365621e+24  5.7028118979678139e+24  6.2140912722242770e+26  -1.6490325448380281e+26  -7.2169049499986036e+28  3.1653114608543041e+29  1.1505829327200214e+30  -3.0673751708843208e+31  -1.2078675225890712e+32  -5.4317875975281248e+32  -6.1243381950700409e+32  -4.0062702952980397e+34  -6.2717422146631213e+34  -5.9459904538391169e+36  8.7360179658810116e+36  -2.7754319814598483e+38  2.6803150914973611e+38  9.5977111746840666e+38  1.5213322623318454e+39  7.6801330798496691e+37  5.3507942557011910e+39  -8.5287907686304931e+39  -6.8056656327859505e+38  1.0916578416366171e+11  7.6895602858980887e+26  2.5537710721346356e+51  -2.0657859862361316e+18  3.2568788257636482e+08  -2.3063935536406375e+24  4.9316489240475217e+48  4.1829944421000467e+17  1.8257707510451744e+35  -1.4915135696112478e+26  2.7875081177213276e+18  5.1437609833333741e+33  -9.2797065979795218e+42  -1.0099948139457577e+27  -7.3973168591573962e+11  7.6378034001244139e+24  2.4541385007935425e+51  -2.6361074907451468e+30  -5.8562212909479938e+28  -3.1068269483556898e+40  -5.4397608207359762e+19  6.1100885827152323e+28  -9.1221300720168932e+45  -3.7619905611098845e+23  -1.4267968274925634e+14  7.2915566443295398e+32  -2.8249371365815846e+21  -4.3020561871752820e+29  4.6381428167486965e+22  -1.4744030838029104e+30  -2.7161072343768569e+38  -2.2135289087654314e+17  -1.6840350027792282e+49  -8.2253416676452907e+30  5.2099344155231420e+41  3.0074647494645567e+24  1.6524594217023190e+35  -1.5725927392627855e+26  2.7504813179102380e+19  3.3775863035892100e+34  1.2402917292469970e+33  -5.8591163304347478e+40  -3.9880599546741270e+24  -7.8942310033304078e+23  -3.7081903646475900e+35  1.1612257837267029e+21  -2.5810527600556245e+20  1.6522533698802339e+27  -1.8170675418942322e+12  -2.7054095584527041e+50  5.9690410481521942e+26  -3.9205883999889009e+42  2.3031309798313114e+31  3.5937015354497320e+33  -1.0992495499068291e+25  -2.4059029352763482e+17  -1.1456963051251690e+28  -8.8803319173362785e+20  6.9383545419247270e+35  -4.9712445631427582e+22  7.9782866108973516e+36  -1.4562003666040972e+40  4.3177195704751574e+20  -1.0851846351846431e+24  -5.1421570604404759e+31  -6.5058480340010626e+33  1.9413002922164642e+19  3.3986972366230361e+27  2.5303196772308462e+27  -5.3182043973940580e+43  1.0449678018722891e+34  8.3792289914572154e+29  4.4875523138867430e+24  2.0284543181949762e+23  -1.9831141706010839e+40  5.0740859319006992e+38  1.9072322356522916e+31  -1.9654072272725371e+44  -1.8458770018256250e+31  1.5056528632074219e+39  1.0719836641918171e+22  1.1268309269676249e+23  -1.5419220675443381e+31  -2.1957838468080431e+31  1.3103537854171948e+28  -3.0932196188011219e+47  -4.0632266828290318e+47  8.4892529861409059e+34  5.2156136877724881e+14  2.8921953519509975e+19  9.6821876405283806e+29  -3.0880351815989551e+23  2.7605695058009340e+16  -4.3961844334723382e+22  -1.7560246980514290e+29  1.3324368470022461e+30  -2.4818527529526918e+49  1.3342280284999869e+13  2.0828786303954132e+26  -1.2505004475207315e+50  -9.8059845044676392e+10  -9.2379471337373204e+18  6.2935528831094068e+35  -9.6262871580586829e+44  1.3811995983455881e+26  -4.3968435688395302e+41  8.3002379758915441e+38  -8.9270945882371322e+29  1.9256165866562468e+16  -8.7024879217791169e+28  7.3991974566430975e+22  1.0712816541777543e+24  -1.4291878330434773e+22  2.7350099924621081e+14  -2.7630048363062001e+48  -3.3290203941954744e+25  2.2856992030929709e+17  8.5705489870890792e+35  -1.0044429383827381e+46  -3.4612937282305864e+19  -7.5510112661419167e+26  7.8744730714530418e+30  -5.2603032173512430e+32  3.3482671216640558e+31  1.3942184268811905e+26  -7.1478801668659897e+39  -5.3362906383510489e+22  -5.1926461262003344e+41  1.8570717735914550e+33  -2.5378211384985540e+33  6.5142779342588917e+29  -3.6893082069946275e+31  -3.5406206823293462e+45  -3.1127517815515236e+28  -3.2288560960462402e+25  1.1719821926629716e+22  -1.3731936818196019e+29  8.2270614409823629e+17  1.6281010740309797e+33  -1.9631483065233210e+37  1.3343783401429145e+26  -7.7343751617643096e+12  2.7989228477779012e+30  4.1804608110103052e+28  -1.9455590176739233e+20  1.2415364359387758e+36  -2.2470795368670958e+19  8.5318279229655614e+26  -3.4512260484715693e+32  4.0616992829859373e+49  -7.1507870213864541e+23  -2.1912021263745081e+34  -1.4396214206168906e+35  -1.4212155510250307e+25  -4.0558140069788989e+11  2.3036765227393042e+41  2.6479894313085643e+40  3.0831449697806987e+42  8.5011438347537371e+23  -2.2218816953651573e+19  -9.2911500630062580e+26  -5.0237510860386509e+19  -1.7648132506695751e+21  9.0591724086107493e+22  7.5195216884468509e+23  -4.2221343169584280e+36  -3.6158031939521224e+35  1.0882130142543298e+36  4.5209047743694307e+34  6.9845963956931549e+33  -3.0794223375471425e+52  1.1726938315231302e+19  -2.2437390596286398e+50  9.2737079393380713e+27  -1.3976802411894089e+12  -4.3500635240091535e+23  2.1663763111133862e+09  3.1681967303367378e+25  2.1088335836218662e+25  1.6420519693316298e+10  2.9576470539446815e+47  5.5727008814793310e+15  4.0863021018655445e+49  -3.2258695072939715e+18  2.1822335607922289e+18  1.0382964039742456e+20  -3.9306938506430396e+25  -1.5891657535991826e+26  2.1418297828237648e+21  2.9128242960547656e+34  -4.6083439506787715e+48  -5.8977543052116531e+27  -2.0354880726690662e+18  -9.9999604108575272e+43  -3.4204583051054964e+41  -1.5553234762382309e+34  -4.2360504206429938e+50  -1.7410687711579056e+37  2.4646040194512521e+27  -1.9837321004076079e+26  -8.4128457598371676e+18  -1.0013421441804548e+16  2.4690476524011576e+30  2.0585784258499600e+26  -1.6333562250323833e+32  6.5373953985012286e+34  -2.6414832699697470e+36  -1.7859902503488159e+40  -6.2523635223982389e+39  5.9179145705770808e+49  2.9691766903369423e+10  4.9513800827420210e+15  -6.3694219057095893e+44  -8.7319915432520284e+27  -7.5864847536718684e+18  -2.1678724096834789e+30  3.9146736242693400e+27  2.1514673953057491e+41  3.9076130714055494e+30  -3.3009721136375291e+34  1.4906485000311786e+24  -9.7370189872128498e+38  -2.8530167613477149e+32  2.3211758741929483e+09  2.8146775771262250e+24  2.1278276426004609e+48  -4.8889760993627162e+17  1.1884733925572853e+31  1.5655160845375402e+40  1.3652493680297260e+26  5.0630016779303264e+19  -6.2163883727247630e+19  1.0291737641412886e+27  -1.1446294204913407e+26  -1.3809139023081342e+30  -4.2743563513706562e+12  2.2551857013595457e+13  -2.5750825275677600e+11  -6.1186524813386109e+23  1.2402526291071765e+25  2.3476729293329569e+14  1.4446602570376550e+34  1.2970666667979561e+22  -1.1706825988586864e+23  2.7410496973571320e+29  3.3420711950474244e+31  -6.4257468688567972e+30  1.7302909023206349e+22  -6.2129867449011125e+38  1.3095102098946989e+51  1.7745780797429242e+40  -1.6825941047147686e+42  9.6582246222180018e+27  -8.1393670129994445e+33  1.3405561607635871e+34  -1.5307052060844833e+22  -3.4188713374822861e+22  -1.7112987624719596e+38  -1.4776279340004111e+37  6.0376034739267410e+21  4.0629382227452546e+21  5.5298247406039887e+31  -8.2141442195094482e+46  -3.1535743981863334e+32  9.6992397613927803e+28  5.9108913581289248e+21  -5.6014501552019690e+30  -4.1712404012712570e+17  5.5691137950694115e+27  -2.3694193600316745e+26  1.0107592872494088e+25  4.9582068009232466e+20  1.4394458960223738e+20  -8.0186702588118442e+26  3.8431983187082273e+37  -6.2541130906296021e+36  2.0547561501842722e+20  6.4276246530250840e+24  1.1669024000633117e+21  1.2615489883752470e+17  3.1046815445799920e+28  -3.6502596779562192e+24  2.1569333144085682e+36  2.6695618679195501e+39  -1.0190892682899279e+40  2.7505136420924411e+23  1.2001466513351030e+23  1.8281919765165204e+16  -5.9203056093953799e+41  -3.7974168157207950e+42  -6.3190141523237476e+42  3.7631112842013172e+25  -1.3386891040811368e+41  2.3112604367631070e+35  -1.2535429825337485e+24  -3.8678715825140167e+32  -1.8167915570409576e+33  -1.1494118461671773e+34  2.0266184650040128e+27  6.3304716197325854e+26  8.2920157795780383e+30  -6.1062039654645251e+30  -1.8670874992657793e+50  -5.8584783852605410e+15  -2.4530317226251510e+34  9.3257651256665832e+26  -6.3420182333564631e+46  6.3604531673759951e+46  -6.9460875758662327e+32  -1.9969069895132740e+32  1.0495731007460843e+30  -3.0790991498004854e+24  1.3449041845490428e+23  1.4721083643620822e+23  5.2757953943325477e+39  -9.2065470425243474e+38  5.1379335399767428e+31  2.7020450403751886e+28  2.2208855247327312e+25  -2.7214629018811953e+28  -5.6666373426958612e+30  8.7466931953680595e+40  -6.8934737732587223e+28  -2.5992275308114026e+21  1.3191072802110304e+29  6.2401255527893838e+46  4.3005321107271099e+22  2.5346660129251602e+08  -1.0938384251125864e+16  -1.2146985079961415e+26  -1.7639621467359112e+30  -1.9636214175359757e+22  4.4170388068904218e+32  -5.3400031299552762e+40  2.1558249133579773e+32  -1.8170264810101492e+23  2.1200622202347128e+22  2.6653099822992251e+20  -3.2264322068059057e+30  -3.4185716600276437e+46  -1.8916412289040343e+47  -2.2925300561409310e+48  -3.5770844055152503e+46  4.7284539272385443e+37  9.2658301495860936e+21  -5.1957738293644795e+24  -3.3945784061397591e+32  -2.3057972089038267e+32  -1.6029886280062327e+33  -2.1876435987460549e+38  -2.7383067278840799e+41  -4.2088114234714825e+23  -3.0191132321769355e+24  -2.0126174849174620e+16  3.0804244829644307e+21  -7.2542945425076415e+31  -2.1292909542913225e+15  -1.3464609657841943e+26  -1.0735860091609334e+30  -2.4180239441963347e+36  -2.9161452274227793e+12  -8.0741027827913435e+23  -8.7049002972073239e+43  -2.6239981897194570e+43  -2.7954250851723718e+49  -2.0830284352837193e+28  2.2443315765806113e+18  -1.4698047294402990e+28  -2.9090726260473960e+24  -4.8319889927842769e+23  -6.6263159213228965e+22  1.7732592917559034e+22  -1.0948260731372280e+38  2.8887142177053796e+11  6.9261883819557725e+47  -4.8643024200620481e+20  -5.8252762530884357e+31  -6.5134089307907695e+19  5.8094257000732727e+27  -8.6235653048365236e+42  -1.8201732572341251e+33  2.3900159711846504e+22  2.9723419276763373e+37  -2.2667432293350140e+16  -8.6968437523658653e+33  -5.4051826291694080e+50  -6.0286542279670948e+21  -6.9977158327174166e+30  2.6519871120213393e+20  -6.8135647537312660e+29  -1.7693779431801675e+23  -1.9551256299849159e+23  4.7036734067692880e+16  1.4280357191152748e+08  3.2005154853482349e+47  -3.5190830275842711e+26  -1.1357599237915695e+35  -5.1360356011259320e+47  1.1589663066333268e+31  2.9689178071630491e+22  1.0545241898836490e+30  -9.0629369172209398e+30  -2.3042271350338229e+38  -2.1200866695667859e+13  -4.2906002596645185e+23  2.6268715075469302e+21  -4.5565640145206470e+27  -3.4074313345879706e+31  2.0442022654040896e+30  -4.7904572710661139e+30  -1.9803680906586607e+20  -1.1899665367708812e+30  -1.5795418606897368e+20  3.2512327327109997e+36  -1.8884866422911494e+27  4.8663343560137228e+19  4.1236630524473317e+25  -5.8379115982649931e+44  3.2211348215767654e+18  -2.9602070059035652e+32  -1.9841992200180903e+45  -4.2685540577066347e+43  -3.7815249562195029e+43  4.4889227134340840e+32  1.0851875982222507e+33  -8.1194146864340355e+49  1.0086691863027465e+25  9.2850337052549376e+17  -3.7562836334639363e+28  4.5232085879924313e+34  2.8914497975286392e+40  -5.1224011970366385e+26  -1.2962019844111712e+22  -1.5493311213706411e+51  4.7946895449340084e+20  2.0003149512766076e+27  1.4118370287253472e+22  6.3392362025283472e+31  -8.5998103865662570e+20  2.6400115786029327e+24  -7.0835592605563120e+16  -8.1848084253494606e+27  -1.8597064022430520e+21  1.5055240508448065e+21  6.0701359367174573e+29  2.0301516445164156e+28  -1.3376723729233534e+29  2.5565020921538482e+49  -2.1587289818691038e+12  -2.3593057407669479e+28  -1.6315031522391933e+19  1.4069911837058311e+35  6.3037575154356076e+27  8.2023468843544465e+28  -2.1380279993418987e+30  4.7738247196901664e+26  2.9344973941686878e+19  1.8900275016328620e+20  -3.9410941492741394e+32  -1.1577642363942312e+19  3.3557601211050923e+24  1.2176502453023129e+46  -2.4958170714970826e+25  -9.8114477671040399e+32  -1.3547433351044245e+15  -5.2725724730499634e+31  -2.2707700924404800e+17  -1.6933774731331942e+16  6.1734599914325401e+48  1.3702920055996979e+49  2.8685346975726543e+12  -5.1731005962596055e+13  -6.7076660957212467e+23  2.7239779027827971e+32  -9.6272581985576719e+36  -4.2150810517239571e+35  1.1984939877666170e+34  -1.3095225463925601e+35  -4.5779505060327548e+31  9.3442420881171461e+51  -2.1194447628125349e+36  4.8419385185202631e+31  -5.5043167512037268e+20  1.8723406441369347e+22  8.5926681719100702e+34  1.7390583393583076e+38  1.3826959599603300e+35  5.5094175976687707e+32  1.4830154223559044e+42  2.3761406384589403e+20  -2.8710692314754135e+23  -2.1956186903804464e+20  -3.8904353101618555e+24  -1.5508330366309944e+26  6.8415883693357588e+18  -2.4947618364854108e+50  4.7470517518984131e+10  2.0960515183245041e+11  1.2275934633158884e+12  -3.1505054916474430e+49  1.1088786790188947e+49  -3.0514649333835224e+45  -3.2824514105050026e+26  -2.7962710181780678e+44  2.9114078206017253e+24  4.9964710553044490e+42  6.9593554638221995e+26  -8.3894278178363298e+25  -4.8386266753315348e+19  1.4437819706351496e+18  -6.1835006869690726e+18  -4.5223160990162686e+34  -3.1623539279889386e+11  6.0968304266617528e+18  1.2194672224443783e+25  -1.0435742280363149e+49  2.9439421063934169e+26  -1.7515052304423309e+32  3.3133706288057760e+29  -3.3944492922657203e+18  -5.8527926896179959e+26  7.2190024243618215e+28  -1.2557204252334025e+19  2.0733505391830645e+39  -1.8658600896761468e+44  -6.1592630134282519e+43  -4.5171984959045629e+45  1.0775925939384103e+19  7.5108363032891754e+34  3.1998152776297144e+14  -1.8098589304475347e+45  1.7043616474153905e+22  2.7326630946311410e+28  -1.9438155255591347e+25  -6.9945242628715213e+26  -1.4519463804303523e+51  -1.0697885256479614e+34  1.8908151608881402e+13  -3.7853706406607037e+43  -4.3835640758545662e+22  6.9480865765752158e+39  6.4972104793098958e+22  -2.0283738068895544e+28  -3.5618291265398063e+39  9.5703954037958398e+34  -2.3161869508879490e+37  -7.0679226624094955e+35  1.5512731238415734e+17  3.0352071428178442e+22  -3.2852893304159425e+29  -1.3058672539284128e+35  -4.1363560071091118e+33  -4.8076581038535092e+33  5.0927014184094863e+33  -2.1184684434229562e+35  2.1586092193271361e+24  1.2381342193126102e+23  1.1180950365894863e+30  4.0481641609364216e+29  2.4813527042841371e+19  -4.3778105830813503e+30  3.5359864938084139e+19  4.4646747126768450e+26  1.6120014911235833e+24  5.6655035028768575e+24  4.5952948322436897e+24  1.1399539897014296e+28  -1.5276024990286895e+32  -7.9946101024072089e+40  2.1689768839044622e+40  -1.2271990242771130e+42  -3.2779336906197803e+33  -1.1650260702861012e+49  8.2673396253410604e+27  1.3924242149149819e+32  6.3264422346300938e+14  2.2318950779960285e+13  -2.0640382389228868e+16  -1.6567906472759853e+30  2.3267882730749700e+29  -2.5829772064701401e+29  6.2692077225343473e+35  -2.5959031672231460e+38  1.5430732907515024e+17  -8.5043327547798056e+22  3.3193721471400072e+48  6.3914828441568085e+26  -4.0106534169756227e+25  1.7042847262883385e+31  2.8776045255005266e+18  -7.4481857834095529e+38  -1.0689732727024888e+24  1.3407532500656028e+40  9.537070286155