<?xml version="1.0"?>
<VTKFile type="UnstructuredGrid"  version="0.1"  >
<UnstructuredGrid>
<Piece  NumberOfPoints="2331" NumberOfCells="4248">
<Points>
<DataArray  type="Float64"  NumberOfComponents="3"  format="ascii">0 0.3 0  0 0 0  0.04999999999999999 0 0  0.0514582251803892 0.02410733605106462 0  0.0558116365147896 0.04786313285751154 0  0.06299675146291706 0.07092097740850717 0  0.07290879486935808 0.09294463440875382 0  0.08540322682126872 0.1136129493462312 0  0.1002978503657798 0.132624531648159 0  0.117375468351841 0.1497021496342203 0  0.1363870506537689 0.1645967731787313 0  0.1570553655912463 0.177091205130642 0  0.1790790225914929 0.187003248537083 0  0.2021368671424885 0.1941883634852104 0  0.2258926639489354 0.1985417748196108 0  0.25 0.2 0  0.2741073360510646 0.1985417748196108 0  0.2978631328575116 0.1941883634852104 0  0.3209209774085071 0.187003248537083 0  0.3429446344087537 0.177091205130642 0  0.3636129493462312 0.1645967731787313 0  0.3826245316481591 0.1497021496342202 0  0.3997021496342202 0.132624531648159 0  0.4145967731787313 0.1136129493462312 0  0.427091205130642 0.09294463440875371 0  0.4370032485370829 0.07092097740850713 0  0.4441883634852104 0.04786313285751155 0  0.4485417748196108 0.02410733605106461 0  0.45 0 0  0.55 0 0  0.5514582251803892 0.02410733605106462 0  0.5558116365147896 0.04786313285751154 0  0.5629967514629171 0.07092097740850717 0  0.5729087948693581 0.09294463440875382 0  0.5854032268212688 0.1136129493462312 0  0.6002978503657798 0.132624531648159 0  0.617375468351841 0.1497021496342203 0  0.6363870506537689 0.1645967731787313 0  0.6570553655912463 0.177091205130642 0  0.6790790225914929 0.187003248537083 0  0.7021368671424885 0.1941883634852104 0  0.7258926639489354 0.1985417748196108 0  0.75 0.2 0  0.7741073360510646 0.1985417748196108 0  0.7978631328575116 0.1941883634852104 0  0.8209209774085071 0.187003248537083 0  0.8429446344087537 0.177091205130642 0  0.8636129493462312 0.1645967731787313 0  0.8826245316481591 0.1497021496342202 0  0.8997021496342202 0.132624531648159 0  0.9145967731787312 0.1136129493462312 0  0.927091205130642 0.09294463440875371 0  0.9370032485370829 0.07092097740850713 0  0.9441883634852104 0.04786313285751155 0  0.9485417748196108 0.02410733605106461 0  0.95 0 0  1 0 0  1 0.3 0  0.9758926639489353 0.3014582251803892 0  0.9521368671424885 0.3058116365147896 0  0.9290790225914928 0.3129967514629171 0  0.9070553655912461 0.3229087948693581 0  0.8863870506537688 0.3354032268212687 0  0.867375468351841 0.3502978503657798 0  0.8502978503657798 0.367375468351841 0  0.8354032268212687 0.3863870506537689 0  0.822908794869358 0.4070553655912464 0  0.8129967514629171 0.4290790225914929 0  0.8058116365147896 0.4521368671424885 0  0.8014582251803892 0.4758926639489354 0  0.8 0.4999999999999999 0  0.8014582251803892 0.5241073360510646 0  0.8058116365147896 0.5478631328575115 0  0.8129967514629171 0.5709209774085071 0  0.8229087948693581 0.5929446344087538 0  0.8354032268212688 0.6136129493462312 0  0.8502978503657798 0.632624531648159 0  0.867375468351841 0.6497021496342202 0  0.8863870506537689 0.6645967731787313 0  0.9070553655912463 0.677091205130642 0  0.9290790225914929 0.6870032485370829 0  0.9521368671424885 0.6941883634852104 0  0.9758926639489354 0.6985417748196108 0  1 0.7 0  1 1 0  0.95 1 0  0.9485417748196108 0.9758926639489353 0  0.9441883634852104 0.9521368671424885 0  0.9370032485370829 0.9290790225914928 0  0.927091205130642 0.9070553655912463 0  0.9145967731787312 0.8863870506537688 0  0.8997021496342201 0.8673754683518409 0  0.882624531648159 0.8502978503657798 0  0.863612949346231 0.8354032268212686 0  0.8429446344087537 0.822908794869358 0  0.8209209774085071 0.8129967514629171 0  0.7978631328575114 0.8058116365147896 0  0.7741073360510646 0.8014582251803892 0  0.75 0.8 0  0.7258926639489353 0.8014582251803892 0  0.7021368671424885 0.8058116365147896 0  0.6790790225914928 0.8129967514629171 0  0.6570553655912461 0.8229087948693581 0  0.6363870506537688 0.8354032268212688 0  0.617375468351841 0.8502978503657798 0  0.6002978503657798 0.867375468351841 0  0.5854032268212687 0.8863870506537689 0  0.572908794869358 0.9070553655912463 0  0.5629967514629171 0.9290790225914929 0  0.5558116365147896 0.9521368671424885 0  0.5514582251803892 0.9758926639489355 0  0.55 0.9999999999999999 0  0.45 0.9999999999999999 0  0.4485417748196108 0.9758926639489353 0  0.4441883634852104 0.9521368671424885 0  0.4370032485370829 0.9290790225914928 0  0.427091205130642 0.9070553655912463 0  0.4145967731787313 0.8863870506537688 0  0.3997021496342201 0.8673754683518409 0  0.382624531648159 0.8502978503657798 0  0.363612949346231 0.8354032268212686 0  0.3429446344087536 0.822908794869358 0  0.3209209774085071 0.8129967514629171 0  0.2978631328575115 0.8058116365147896 0  0.2741073360510646 0.8014582251803892 0  0.25 0.8 0  0.2258926639489353 0.8014582251803892 0  0.2021368671424885 0.8058116365147896 0  0.1790790225914928 0.8129967514629171 0  0.1570553655912462 0.8229087948693581 0  0.1363870506537688 0.8354032268212688 0  0.117375468351841 0.8502978503657798 0  0.1002978503657797 0.867375468351841 0  0.08540322682126869 0.8863870506537689 0  0.07290879486935797 0.9070553655912463 0  0.06299675146291703 0.9290790225914929 0  0.05581163651478957 0.9521368671424885 0  0.0514582251803892 0.9758926639489355 0  0.04999999999999999 0.9999999999999999 0  0 1 0  -0 0.7000000000000001 0  0.0241073360510646 0.6985417748196108 0  0.04786313285751161 0.6941883634852104 0  0.07092097740850711 0.6870032485370829 0  0.09294463440875372 0.677091205130642 0  0.1136129493462312 0.6645967731787312 0  0.1326245316481591 0.6497021496342202 0  0.1497021496342202 0.632624531648159 0  0.1645967731787313 0.6136129493462312 0  0.177091205130642 0.5929446344087537 0  0.187003248537083 0.5709209774085071 0  0.1941883634852104 0.5478631328575115 0  0.1985417748196108 0.5241073360510646 0  0.2 0.5 0  0.1985417748196108 0.4758926639489353 0  0.1941883634852104 0.4521368671424885 0  0.1870032485370829 0.4290790225914928 0  0.177091205130642 0.4070553655912463 0  0.1645967731787313 0.3863870506537688 0  0.1497021496342202 0.3673754683518409 0  0.132624531648159 0.3502978503657798 0  0.113612949346231 0.3354032268212686 0  0.09294463440875361 0.322908794869358 0  0.07092097740850711 0.3129967514629171 0  0.04786313285751148 0.3058116365147896 0  0.02410733605106464 0.3014582251803892 0  0.6985417748196108 0.5241073360510646 0  0.7 0.5 0  0.6985417748196108 0.4758926639489353 0  0.6941883634852104 0.4521368671424885 0  0.6870032485370829 0.4290790225914928 0  0.677091205130642 0.4070553655912463 0  0.6645967731787312 0.3863870506537688 0  0.6497021496342201 0.3673754683518409 0  0.632624531648159 0.3502978503657798 0  0.613612949346231 0.3354032268212686 0  0.5929446344087537 0.322908794869358 0  0.5709209774085071 0.3129967514629171 0  0.5478631328575114 0.3058116365147896 0  0.5241073360510646 0.3014582251803892 0  0.4999999999999999 0.3 0  0.4758926639489353 0.3014582251803892 0  0.4521368671424885 0.3058116365147896 0  0.4290790225914928 0.3129967514629171 0  0.4070553655912462 0.3229087948693581 0  0.3863870506537688 0.3354032268212687 0  0.367375468351841 0.3502978503657798 0  0.3502978503657798 0.367375468351841 0  0.3354032268212687 0.3863870506537689 0  0.322908794869358 0.4070553655912464 0  0.3129967514629171 0.4290790225914929 0  0.3058116365147896 0.4521368671424885 0  0.3014582251803892 0.4758926639489354 0  0.3 0.4999999999999999 0  0.3014582251803892 0.5241073360510646 0  0.3058116365147896 0.5478631328575115 0  0.3129967514629171 0.5709209774085071 0  0.3229087948693581 0.5929446344087538 0  0.3354032268212687 0.6136129493462312 0  0.3502978503657798 0.632624531648159 0  0.367375468351841 0.6497021496342202 0  0.3863870506537689 0.6645967731787313 0  0.4070553655912463 0.677091205130642 0  0.4290790225914929 0.6870032485370829 0  0.4521368671424885 0.6941883634852104 0  0.4758926639489354 0.6985417748196108 0  0.4999999999999999 0.7 0  0.5241073360510646 0.6985417748196108 0  0.5478631328575116 0.6941883634852104 0  0.5709209774085071 0.6870032485370829 0  0.5929446344087537 0.677091205130642 0  0.6136129493462312 0.6645967731787312 0  0.6326245316481591 0.6497021496342202 0  0.6497021496342202 0.632624531648159 0  0.6645967731787312 0.6136129493462312 0  0.677091205130642 0.5929446344087537 0  0.6870032485370829 0.5709209774085071 0  0.6941883634852104 0.5478631328575115 0  0 0.15 0  1 0.15 0  1 0.85 0  0 0.8500000000000001 0  0 0.075 0  1 0.075 0  1 0.925 0  0 0.925 0  0.5 0.8127595604293815 0  0.5069440078039168 0.190422209288238 0  0.25 0.3127595604293815 0  0.756944007803917 0.3095777907117619 0  0.756944007803917 0.6904222092882382 0  0.25 0.6872404395706185 0  0 0.225 0  0.4255768646051012 0.2241073097134061 0  1 0.7749999999999999 0  0.6773391559270888 0.2766774022734219 0  1 0.225 0  0.6755768646051011 0.7241073097134062 0  0 0.7750000000000001 0  0.5818971135297744 0.2287925518358889 0  0.8318971135297746 0.728792551835889 0  0.1659156081861886 0.7301636995921477 0  0.08376842746533225 0.2299656297760495 0  0.4236002201977974 0.7746535834185855 0  0.0840843918138115 0.7698363004078523 0  0.3340843918138113 0.7301636995921477 0  0.3340843918138114 0.2698363004078523 0  0.9159156081861887 0.2301636995921477 0  0.5840843918138116 0.7698363004078522 0  0.1659156081861887 0.2698363004078523 0  0.9162315725346678 0.7700343702239506 0  0.8340843918138114 0.2698363004078523 0  0.75 0.6146645247768686 0  0.5 0.1125158665330878 0  0.75 0.3874841334669124 0  0.2504983345544904 0.6122915843562002 0  0.2504983345544902 0.3877084156437999 0  0.5 0.8879783056303169 0  0.7005361650220154 0.3333055947145943 0  0.70416808765371 0.6599554817221275 0  0.449930214263529 0.1678187287522426 0  0.2247310981387008 0.7415600637745463 0  0.5155081196221678 0.7563797802146907 0  0.2752689018612993 0.2584399362254537 0  0.05605196690611226 0.8246131191226815 0  0.9439480330938878 0.1
[...]
<PointData  Scalars="Temperature"> 
<DataArray  type="Float64"  Name="Temperature"  format="ascii">-2.1224896089939135e+26  -2.5651266132082458e+27  -5.8789146832587479e+26  1.0135745434846989e+27  -5.2762790492030186e+26  1.4731451178302698e+27  -1.7049311440849391e+27  2.1723102883011666e+27  1.2301213862890206e+27  1.5023760758053208e+27  -7.7770411118198052e+27  -6.3827968169240594e+27  -1.6923304651540480e+28  -3.1641690380262462e+27  -1.5353299308805551e+28  -2.6121731024944395e+27  7.3441201421596445e+26  -1.9358939863461897e+27  6.3167757369522911e+27  -1.6133091840587498e+28  3.1811756296086664e+29  1.8817748378885062e+29  -2.9746665045798017e+28  4.5760774393497473e+27  7.5196107107109698e+28  4.6411372444739884e+28  1.8238626566091171e+28  -1.0076602989647575e+28  8.4569459109114377e+27  2.1384330103422752e+27  -1.0438770361806176e+27  5.0951244301564670e+26  2.0330273049474059e+26  3.5479587679503437e+26  -4.4287306291413264e+27  4.9618182457418227e+27  5.6908452286649593e+28  1.4269137696693258e+29  5.7985017374081091e+28  2.0391354062380978e+28  2.5220199503671456e+28  1.4850911584268036e+27  -4.1718815255498957e+26  -2.5524903513015638e+25  2.1627148776001573e+25  -5.4823042242379590e+25  -1.7674976504530064e+26  -3.3067996572251544e+26  7.7520230230502272e+27  4.5093965034588955e+27  -1.6456779284355136e+28  2.2788458033967432e+28  -4.5392549517399323e+27  -1.8403512886196244e+27  -7.1002806764783175e+26  4.4833757480841137e+26  1.0031401773975795e+26  3.8988730884839354e+27  4.8466394611999317e+27  8.0417823376008392e+27  1.7871093326094232e+28  1.2308144428993837e+28  1.3406272300734919e+28  9.3674970683669610e+26  2.8271176885783211e+26  1.6753958484295208e+26  4.4012364274060926e+25  -3.2015227751457010e+25  5.4215525853392495e+25  -8.6842381395885748e+25  6.2278737095764234e+25  -1.1768460451608705e+25  6.9148229717287551e+25  -4.7285720472703145e+26  9.2148233463052239e+26  -2.0532480823745902e+26  4.4205099903007604e+27  4.2748319844912302e+28  6.3045039784506274e+25  -8.0797415030386811e+26  -8.6687651596424026e+24  -6.5946268811058851e+25  1.3582848686026795e+26  2.5521061128697052e+26  2.1494541645103458e+26  -4.0329951157978831e+25  4.3120352372793384e+25  2.6856174878470111e+25  -7.3118496880826866e+25  1.4065114603945735e+26  -2.7453772068342280e+26  3.9955405125338034e+25  -1.0058963093648194e+24  -3.8302746432773933e+24  -1.8928203374659989e+25  2.3651693623051283e+25  1.5171253856737773e+26  -4.1592227030301205e+25  6.0384313501296817e+25  -2.0821938077217336e+26  1.0915078161358635e+26  1.1575287012346797e+26  8.4615256009868797e+24  -1.2874544216391856e+26  3.6398445856452612e+26  5.1049367137478074e+26  2.0068981714405267e+28  -1.6791856472623380e+28  5.4911031321638270e+27  -5.2999160895056336e+25  4.8775075714739136e+27  4.3601475960840436e+28  -3.2932646749359766e+27  2.6023967892752203e+27  -2.4652344077157363e+26  1.2856073277474181e+27  -1.2804773478373206e+27  2.5749977294987364e+26  -1.8371688389642986e+26  -2.0920965091267284e+26  -1.5129983421908775e+25  -4.1854423694745766e+26  7.5537789801118502e+26  -4.0827878124168109e+27  7.9870399019373015e+27  5.6493458952469686e+27  -8.4934591083215499e+27  1.8882069174294676e+29  1.1081679016676478e+28  -2.1454020847860629e+27  6.7582577960290218e+26  1.7932147014569061e+26  -1.0546027494581268e+26  2.2869466604661844e+26  7.8150762898548597e+25  1.7517504290533353e+25  -2.3577600303556027e+26  1.7217294454575167e+27  -2.9473426808973949e+27  1.8395880184425909e+27  -1.6573212559298712e+26  -2.5577479030953200e+26  -3.3162340139801886e+25  -1.4964360405632858e+26  1.0522473885620753e+28  -3.9997880712752252e+28  2.7307193444454319e+29  1.3028421682393580e+29  -2.8861952210342140e+28  -2.2078143682234565e+27  8.3082893926485571e+26  -4.6212104342227426e+26  -8.0200428707487196e+27  3.3024958819071656e+28  8.3559023772316025e+28  -4.2518337555386841e+27  3.1978774955471205e+27  -3.9197351130495075e+27  7.7210462831931731e+27  4.8720370815246646e+27  -7.5980432249562610e+26  -1.0537915248886531e+27  -1.1307154245514476e+28  1.8453626033127758e+27  -1.1838511556685512e+27  5.6277445310116558e+26  6.9740866817284626e+26  -1.8115566095427567e+27  -8.3404473057179599e+26  -1.0649626222165408e+28  -1.7637697267978976e+27  7.5775323738353837e+26  -5.4674255577464325e+26  -3.2953991333265267e+26  5.6524698406407730e+27  2.9201427518904923e+26  -2.2222514482792502e+25  7.6868746116098891e+25  3.8504308842943851e+25  6.7774582408388091e+26  7.1332082044925317e+26  7.2890070900335233e+26  2.1577135737413892e+27  4.2125087182285816e+28  4.4184947807140139e+27  -4.8586465253739456e+26  2.1835517634060275e+26  8.4744757738968151e+25  -7.1492740611977358e+26  3.4932604245034061e+27  -3.4102061610949252e+27  3.6505552240681205e+27  -5.8540830675142392e+26  -7.7771328939243732e+25  2.9454981939381930e+26  8.3877227781509083e+26  -3.4824952706682571e+27  8.0449572922215160e+27  1.3789124468258746e+28  1.3369667000748830e+27  1.1737499748819327e+27  -5.1483174043387865e+26  1.6940722663754111e+28  3.8035228233380850e+28  2.4675297907825745e+28  -4.8870623952620983e+28  -1.0543250586782403e+28  2.3569690510050045e+27  -4.4512579454574478e+26  -7.2766208225345684e+25  -5.0066333017618733e+27  1.5945400442266508e+28  1.8778367392305875e+28  -4.5722147554977328e+27  7.6171318652439655e+27  -3.2024744450312093e+28  -1.0432884627375980e+29  -7.9623533549349423e+27  8.3422579870566353e+25  8.3178489653510942e+25  6.3451252019992259e+27  3.1461580781567639e+26  2.2639884615456902e+26  6.7578686317501893e+26  1.9526234445803478e+25  -7.1085037792661425e+24  1.0175831532022525e+26  1.0194204556158356e+26  -8.6947227870172638e+24  8.1754347854281324e+25  -1.4191654836410096e+25  1.2272973204120500e+26  -2.3259832680385759e+25  -6.8304264492208108e+26  5.7164839001664103e+27  2.3684485633569460e+26  3.8082252811679550e+25  -3.8484616509019657e+25  -1.0891637142663473e+26  -2.0122279203277830e+26  -1.0419072280318205e+26  -9.1053481228172220e+26  8.1917553580962260e+25  2.7300413747826603e+26  -5.6616776356598850e+25  2.7795033195892711e+26  -1.7559519261061346e+26  -1.5583083710140769e+25  -2.3026089433050462e+25  2.1246679546994267e+26  1.8899756967248969e+23  8.0847783045690829e+25  -6.1787882719672369e+26  -2.0311032532687392e+26  -1.8604723294194083e+25  3.6116100098433170e+26  7.4867738699797230e+27  -9.9833616983999902e+25  1.7959757860469968e+26  5.0756646874648982e+26  -1.1841581170875054e+27  1.3784052155502104e+27  5.7522953085640905e+25  -4.6854670239302385e+25  -8.2055994806076489e+25  6.8940711062263960e+25  -1.0895680061625603e+25  -5.9090920940317389e+26  1.6400562980548303e+26  -1.7012470926409203e+25  -5.4838056609885520e+26  6.8441260490627243e+25  1.7068654165976529e+28  -2.2647103859682220e+26  3.8090586429699019e+26  1.7603993444154944e+26  -3.4313551826605824e+25  1.0065372982264694e+27  -1.1807181855187558e+26  -1.2474861430825111e+26  4.5530273671279089e+26  3.5495160562095956e+27  -2.3708164268513997e+26  1.8720578800415949e+26  1.7310581242086138e+26  -2.3222693873881837e+26  6.2666243449797121e+26  2.3646677236819024e+26  2.9055627287417812e+26  -8.1811874332385931e+26  7.7258262786725469e+26  7.1591607292225208e+27  -1.1417089550721479e+26  6.6992079092086725e+26  -1.0544735840336957e+26  2.7439233186690357e+25  -1.3268523051873639e+26  8.0042662547908533e+25  -7.0616348796168192e+27  -4.0035936357245252e+27  -6.6951248812020692e+25  -7.3297406971497877e+26  -1.8607691537872449e+26  2.9381482330096279e+24  1.5508356549053691e+26  3.9876572820967481e+26  7.3892287959173265e+26  -5.1628817895561519e+26  1.8499645757550638e+27  4.6033151224782359e+26  -6.6624776456548128e+26  -1.2802611059169651e+27  9.4744009775198327e+26  1.7962518230992769e+25  5.3504466743980309e+24  2.2892173588136966e+26  1.6739536577913288e+27  -3.7586292120177557e+26  2.7651470285655488e+26  4.9141310131249063e+26  2.4822464890811092e+26  4.3557407424514196e+26  4.8510128370632257e+26  5.9259653523303942e+25  -4.4831399492759909e+25  3.1993400364632976e+26  1.0194779981425985e+26  -4.3564461765624457e+26  3.8404939509850557e+26  -8.9491202100875916e+27  -9.9649196828645603e+25  2.8094292580888526e+26  -6.3558297949496050e+24  4.5605647220390081e+27  -1.6104704612083709e+27  -6.0691216448432737e+26  1.5323916451728081e+27  1.7111193600242503e+26  -3.3013681466049832e+24  7.8849168611359563e+26  -4.1759718528767406e+26  7.8079914688410441e+24  -9.0065891926115993e+26  -1.9462792244950244e+27  2.7174745710966102e+28  -1.2928097507936048e+26  -8.1865640788571851e+26  -3.6439542701756482e+27  -4.5739528456584040e+25  -1.9922573953391561e+26  2.9337786353269340e+25  8.2545429878789735e+27  -3.5933240089596579e+27  3.9659566667146744e+26  1.0849724757369724e+27  -1.8647638883009499e+27  2.9873381394731356e+26  -1.0711970919397437e+26  -4.1265980591943234e+26  -2.4607887313763401e+26  5.5033056473833501e+23  5.5724637891162976e+25  8.2104567736804166e+25  5.4431851490606893e+25  7.1177916420541665e+25  1.8400382773144689e+25  -1.4804999521710518e+26  1.0522515679764448e+26  -7.6063204590514773e+27  1.8864903313789705e+25  -1.1875685345139822e+26  3.3936636834140233e+25  -9.8387945283061134e+24  2.2963477117484615e+26  1.2547268853815351e+28  -1.3485475105268874e+26  1.1183079825399996e+27  -6.0543218919688439e+26  2.3471631802469523e+26  1.4970087647983209e+27  4.6916626522460611e+26  1.3648034114954962e+28  -2.7536600671129362e+27  9.2180976825346391e+25  4.4927512678707158e+25  -5.7238505058722825e+27  -4.1363835365286283e+26  -1.3659939904254411e+27  -7.5410628983805815e+28  3.2035489642005680e+26  -5.7104895093640039e+26  -5.8051235682128267e+26  2.6353640130573589e+26  4.3570086556210794e+26  -9.1345704689915533e+26  -4.7809481906956990e+26  6.4071917734067596e+26  7.1756789972115854e+25  2.2322092625294075e+25  1.0630105904305847e+27  2.1764001322743387e+26  -6.4196518682516374e+25  1.3827848266150407e+26  9.8237588532317555e+27  4.4936983936715824e+27  -2.4922036101370217e+26  -1.3291741098430150e+26  -5.0538440094437539e+25  1.1675986178472242e+25  7.3761703018703964e+26  1.9131065686470383e+26  -5.8951107111063313e+25  -3.8098026748334221e+26  -3.2472050633044244e+27  -5.3084229642005330e+26  5.1116689453584309e+25  3.8655679647411858e+25  5.2502267230772989e+26  5.7151792847899888e+26  3.0891343044341624e+26  3.4703341429931437e+25  1.8198205929431356e+24  -1.1725842457141537e+27  4.3849572393487211e+25  -2.4524665247676523e+26  8.4034736361346779e+26  1.9592318741694514e+27  1.7918995559893491e+26  -4.8953598794040163e+26  -3.8848373377824467e+25  1.7267997475153574e+27  -1.3103538083746499e+26  2.3168711930436433e+25  3.1329014642680764e+26  -3.1434602336313357e+25  1.6824629513467282e+27  1.2066488108924163e+27  1.7200447208004367e+26  1.5908360118655091e+27  6.4778970606315802e+26  2.9897403585094195e+27  4.7249865523786276e+26  -1.3026142450433504e+27  -8.2755302738990064e+23  -3.2057341231459310e+26  3.3828530842159509e+25  6.9820725257982828e+27  2.8767319544864208e+24  -1.1423335908869695e+26  1.3700380156752714e+26  1.5185671223999991e+27  1.2374372804570169e+26  3.1697131476437202e+26  3.4896377365914600e+26  1.3802673731864105e+26  1.1916771698106157e+26  -1.1662496332302942e+28  -2.3306553434276971e+27  -2.8785003203421783e+26  4.2323393695839230e+25  3.0182024123952268e+26  -2.5340466299251036e+26  2.7094932070110268e+26  1.0632828383321646e+26  -3.1642660086761078e+26  4.2185907610622053e+28  1.6451455932932112e+27  3.3343959003266873e+27  2.7707848740576957e+27  5.7370440365159407e+25  -3.3268433468147692e+27  3.6231946267319215e+26  3.1408021439729906e+26  2.5601662363459089e+27  7.2079781215398392e+26  -3.6412440137074177e+26  -1.1499730326319180e+27  -1.3226693324185803e+27  8.3787384509377097e+27  4.4601128556997927e+26  1.1709849916002379e+27  1.5140144305368653e+26  4.1028309675674483e+27  -7.0649535893937097e+25  4.5052400429887204e+26  -1.1841685415135191e+26  1.1156835297228581e+26  8.1055163198102971e+27  -5.2302050687079009e+26  2.2154757090060540e+26  -4.2137419391013352e+25  -2.6064869491990715e+25  6.0147415610728317e+25  -7.0092407411320887e+26  -8.5623109302195834e+25  -2.8951984419779515e+27  2.1288377974904124e+26  1.2351454823862982e+27  1.5612721223791651e+27  1.9572340937063299e+28  1.9968149016394287e+26  6.1314092274088708e+26  3.6915452170962879e+25  -1.7361561431402412e+27  6.1011409488901056e+27  1.8168574376577275e+25  -2.3638808927388582e+25  -1.0057187340991865e+26  1.0086516641606110e+25  1.1350264823820379e+27  5.4100200796006185e+25  1.4913064252566574e+26  2.3357211956059820e+26  3.7600552675497733e+25  3.1591663662393350e+25  2.0082331324207094e+26  1.1381149693842703e+27  -1.4808556379985689e+26  -3.8485561450330544e+26  -3.2243565746280149e+26  -3.2322822436878253e+26  -1.2908187178549782e+27  4.9773824462775322e+25  9.6713605508173679e+26  8.3590905483281772e+24  2.2345140040364829e+24  6.7629084951374924e+25  2.8440906180264628e+26  1.0175898963010363e+26  3.8125245885490306e+27  9.2888763714544379e+26  7.9557554123179566e+25  4.7769984312757999e+25  -6.5626041529417881e+25  5.1647287018958086e+26  -1.7908888084244280e+27  -1.6011266222428738e+26  1.3865762375108201e+27  1.1651687205019714e+26  2.9592114402743600e+27  -6.3208736632501534e+25  -4.6972483837903928e+24  -5.3580495110413785e+25  -3.9707436872793144e+25  2.5147889931900409e+26  1.8015879702458516e+26  -2.6277216930015667e+27  1.3800539754887696e+26  1.1382953279826958e+25  1.1891790230196096e+26  -1.8928439820796507e+24  -8.1614774460557864e+25  8.3199024919524255e+26  8.8084697844164831e+25  3.6662167845161651e+27  8.8080662575022148e+27  -8.6013770852707885e+24  1.7809994138031559e+26  3.0858044839478142e+25  3.9517702529839092e+25  -1.5228171007203154e+25  2.8892720543619786e+26  -4.1678952818250071e+27  8.2268033339186810e+26  8.6622465789272697e+26  -1.9289856541404337e+26  -3.1225926618635337e+26  -8.7636908127575593e+25  2.4103173251199877e+26  -1.5810660953227468e+27  2.0387268677050824e+27  -9.0095551306272857e+25  -1.8581897314771950e+26  -5.4585699924080838e+25  4.0108226126029520e+26  -3.4923983205330692e+25  -2.7272209844791232e+26  -3.0329019215107703e+26  -4.6986840113047530e+26  -4.4312904550702896e+27  2.9676471511993540e+26  9.2662742657027850e+25  -6.1241817236365961e+25  -3.2147009025083593e+25  -5.3968195423768969e+26  3.4455334216650956e+26  -9.8824056897912340e+26  -4.5945854416707325e+26  1.6367198585470592e+26  -1.5265453893763260e+28  -7.5136224076458531e+26  4.4384260265862429e+25  4.8090145556836426e+24  1.3018797923149176e+27  -3.8354240787210823e+26  5.7755869900654231e+25  1.3509984286507102e+26  8.0781569130428426e+25  -2.0913744838203102e+27  2.3625749815472857e+26  -1.3474710819721115e+27  3.0970358521026100e+27  1.1778831060141835e+25  -9.5593706683038016e+26  1.0453810193555138e+27  -1.5768716112695752e+25  7.5282148938742108e+27  -5.3681294800699596e+25  -2.7564855016755013e+27  6.8494074093280227e+26  5.8468847728784199e+26  1.4858552177082138e+27  -1.0675569273585013e+25  -5.8642090662251262e+26  7.0743341066994055e+25  3.7103591630604586e+25  1.3610574653278545e+26  -5.8760519456850277e+27  1.6202796752821841e+27  3.8550279846033578e+27  -1.2241429392037562e+26  -2.3695375987231209e+26  5.3347708354408466e+28  1.3659049741705188e+24  2.9107787697332790e+27  -3.0363145826115676e+25  -1.0665525172057868e+27  9.5812197748179194e+25  1.7375613188514211e+26  2.2771599618862620e+27  -2.1678966675798163e+26  2.0683857682731578e+26  -1.1831673296853467e+24  -2.1680940057677857e+26  4.4587799098739126e+27  -4.2654180706499723e+25  -2.4409635744180442e+26  -7.3921670176259943e+27  4.9002035511337697e+24  -2.7681309812316686e+25  5.9422135662901125e+24  -9.9489419139390875e+26  -2.8847257151326966e+26  -4.9066254098401475e+25  -4.3426196333657212e+25  -2.6780751220090628e+27  5.5107118190555156e+27  -4.3108272203468711e+26  -3.6410509118190442e+27  1.1820025988794496e+27  -9.1592374839688682e+24  -3.0256331821633018e+27  -6.4770900074927997e+25  -2.2822246069666385e+26  3.6283905249408737e+27  -2.5231412028620636e+27  1.1348974118888081e+28  9.6513867524198466e+26  -9.9211851100363474e+27  -3.3798650547358260e+26  3.2792217316846400e+25  -9.4823224976955808e+25  2.5037972434080769e+26  -8.5837256459300733e+25  1.5356248730552532e+26  6.2968387462954126e+25  -7.9299647924548130e+25  2.7999037805404372e+28  -5.5919875479097958e+27  -8.8262442228234438e+26  -3.1286221761006818e+26  -1.3282689359610328e+25  -5.5829941017118643e+26  1.6918952580457548e+27  2.8935787060809723e+27  -2.1959212988739837e+26  3.4567655426411630e+27  8.9948273275704689e+26  6.9821863863268841e+27  8.9923753400037059e+25  4.3128066580755152e+27  -2.9676521959605346e+27  3.5468925999089362e+27  6.8195829454012308e+27  1.0546546499622819e+27  -4.3618802669380045e+27  -5.4434598545701228e+24  -6.1085200839607862e+25  1.0170751594571997e+27  -5.3151642078436306e+25  6.3528182113023904e+26  5.0683273940418869e+24  -3.7279453438318172e+27  1.4449940489422855e+26  -1.7416640437909337e+26  4.1687067195349155e+26  -2.0834353645281931e+27  2.3431493661269519e+28  2.5968884486224193e+27  -3.4224676141966364e+25  3.5053111273406760e+26  -4.5264762267299336e+27  1.0107903160838790e+26  -1.6002581751564507e+27  2.3192661320254198e+27  1.3573092183963322e+27  1.8968793196325096e+26  1.0097168926612443e+28  -3.7926739710559602e+28  7.8159034440211382e+25  6.4104378646979699e+27  2.1482004523636097e+27  1.7103193685736179e+27  -6.0804062996390541e+26  6.4826930410086515e+25  3.3987020982980866e+26  6.6742038909438207e+26  -1.8443682342850603e+26  1.8060593687877996e+26  7.9288728744842860e+27  1.3774033951916725e+28  7.8692377553414240e+25  5.7866465487507128e+27  2.7386731398323645e+26  6.6911688596125728e+26  3.6999480819819766e+26  7.6882812210703348e+25  8.1571684288647096e+25  4.1318542829980532e+26  -2.6143792981108858e+26  -8.7214281950671221e+26  1.4734725832994647e+25  2.8264303913262268e+26  4.5230398994939037e+25  9.1064440342245862e+25  -3.0462287181588112e+27  -1.1623007755191671e+26  1.2728009148584929e+27  6.4807013249589941e+26  -1.3908378919059523e+27  -1.0513285658444234e+26  4.8264607339859127e+27  2.2233310155060001e+26  5.7197505167561662e+25  3.7488516590878128e+26  -9.8878929596938832e+26  -1.3338713469858158e+26  1.5987716451685508e+27  1.2630207951135562e+27  2.1735036400805823e+26  1.6490198049052375e+27  1.4614336925175070e+26  1.6953498965456025e+26  -3.6388676377406067e+27  -6.6692994860400545e+25  2.0977563721227120e+25  8.3401344551718902e+24  1.8429602963143593e+26  -1.5111831748432922e+26  2.8595123351659713e+26  1.1821952803364086e+27  2.7812293985124882e+25  4.2093977950222696e+25  -2.9534934276920038e+25  4.4385450714107384e+26  1.1217342433597810e+26  -5.8588210464851549e+26  1.3920578859366108e+27  7.6068968943054190e+25  1.3997472716620191e+27  -2.2504184159243418e+25  1.3998194888381754e+26  4.8228208269167543e+26  2.7030718530743530e+28  2.7978248378722587e+28  -5.1883396940129940e+26  -2.5448533444889582e+26  -3.3945722062459334e+26  -3.3526928834795923e+26  -1.3602043202084400e+26  -1.8242647887438460e+26  5.5714093237623849e+27  1.1985976660208823e+26  3.1225455306643308e+27  2.5954659272696174e+25  -1.7292203176306005e+28  -1.8068696658250631e+26  1.5509832165972510e+26  9.1023616988476765e+24  -9.3046291218704628e+25  -1.3312334916719899e+25  -2.7849812142999741e+26  1.9328822532925245e+25  5.8374564863525618e+25  5.0144612178131255e+26  -8.7071507184351738e+26  2.7223357820754244e+27  1.1106993833687335e+26  -1.3878057390743254e+26  5.1417828569461426e+26  1.0274188466790038e+26  -2.6282842297188887e+25  6.9078775914859877e+25  7.7899222895725667e+24  7.2964095669627247e+26  -2.5311965388103552e+26  -1.7573963805710970e+25  7.2322864262411437e+25  -1.8747670676131110e+28  -1.4774553797220125e+27  1.0143133721610382e+27  -1.3744723205464925e+29  -4.2302824318216541e+25  8.1149038897442628e+24  5.5217831874352755e+26