<?xml version="1.0"?>
<VTKFile type="UnstructuredGrid"  version="0.1"  >
<UnstructuredGrid>
<Piece  NumberOfPoints="2331" NumberOfCells="4248">
<Points>
<DataArray  type="Float64"  NumberOfComponents="3"  format="ascii">0 0.3 0  0 0 0  0.04999999999999999 0 0  0.0514582251803892 0.02410733605106462 0  0.0558116365147896 0.04786313285751154 0  0.06299675146291706 0.07092097740850717 0  0.07290879486935808 0.09294463440875382 0  0.08540322682126872 0.1136129493462312 0  0.1002978503657798 0.132624531648159 0  0.117375468351841 0.1497021496342203 0  0.1363870506537689 0.1645967731787313 0  0.1570553655912463 0.177091205130642 0  0.1790790225914929 0.187003248537083 0  0.2021368671424885 0.1941883634852104 0  0.2258926639489354 0.1985417748196108 0  0.25 0.2 0  0.2741073360510646 0.1985417748196108 0  0.2978631328575116 0.1941883634852104 0  0.3209209774085071 0.187003248537083 0  0.3429446344087537 0.177091205130642 0  0.3636129493462312 0.1645967731787313 0  0.3826245316481591 0.1497021496342202 0  0.3997021496342202 0.132624531648159 0  0.4145967731787313 0.1136129493462312 0  0.427091205130642 0.09294463440875371 0  0.4370032485370829 0.07092097740850713 0  0.4441883634852104 0.04786313285751155 0  0.4485417748196108 0.02410733605106461 0  0.45 0 0  0.55 0 0  0.5514582251803892 0.02410733605106462 0  0.5558116365147896 0.04786313285751154 0  0.5629967514629171 0.07092097740850717 0  0.5729087948693581 0.09294463440875382 0  0.5854032268212688 0.1136129493462312 0  0.6002978503657798 0.132624531648159 0  0.617375468351841 0.1497021496342203 0  0.6363870506537689 0.1645967731787313 0  0.6570553655912463 0.177091205130642 0  0.6790790225914929 0.187003248537083 0  0.7021368671424885 0.1941883634852104 0  0.7258926639489354 0.1985417748196108 0  0.75 0.2 0  0.7741073360510646 0.1985417748196108 0  0.7978631328575116 0.1941883634852104 0  0.8209209774085071 0.187003248537083 0  0.8429446344087537 0.177091205130642 0  0.8636129493462312 0.1645967731787313 0  0.8826245316481591 0.1497021496342202 0  0.8997021496342202 0.132624531648159 0  0.9145967731787312 0.1136129493462312 0  0.927091205130642 0.09294463440875371 0  0.9370032485370829 0.07092097740850713 0  0.9441883634852104 0.04786313285751155 0  0.9485417748196108 0.02410733605106461 0  0.95 0 0  1 0 0  1 0.3 0  0.9758926639489353 0.3014582251803892 0  0.9521368671424885 0.3058116365147896 0  0.9290790225914928 0.3129967514629171 0  0.9070553655912461 0.3229087948693581 0  0.8863870506537688 0.3354032268212687 0  0.867375468351841 0.3502978503657798 0  0.8502978503657798 0.367375468351841 0  0.8354032268212687 0.3863870506537689 0  0.822908794869358 0.4070553655912464 0  0.8129967514629171 0.4290790225914929 0  0.8058116365147896 0.4521368671424885 0  0.8014582251803892 0.4758926639489354 0  0.8 0.4999999999999999 0  0.8014582251803892 0.5241073360510646 0  0.8058116365147896 0.5478631328575115 0  0.8129967514629171 0.5709209774085071 0  0.8229087948693581 0.5929446344087538 0  0.8354032268212688 0.6136129493462312 0  0.8502978503657798 0.632624531648159 0  0.867375468351841 0.6497021496342202 0  0.8863870506537689 0.6645967731787313 0  0.9070553655912463 0.677091205130642 0  0.9290790225914929 0.6870032485370829 0  0.9521368671424885 0.6941883634852104 0  0.9758926639489354 0.6985417748196108 0  1 0.7 0  1 1 0  0.95 1 0  0.9485417748196108 0.9758926639489353 0  0.9441883634852104 0.9521368671424885 0  0.9370032485370829 0.9290790225914928 0  0.927091205130642 0.9070553655912463 0  0.9145967731787312 0.8863870506537688 0  0.8997021496342201 0.8673754683518409 0  0.882624531648159 0.8502978503657798 0  0.863612949346231 0.8354032268212686 0  0.8429446344087537 0.822908794869358 0  0.8209209774085071 0.8129967514629171 0  0.7978631328575114 0.8058116365147896 0  0.7741073360510646 0.8014582251803892 0  0.75 0.8 0  0.7258926639489353 0.8014582251803892 0  0.7021368671424885 0.8058116365147896 0  0.6790790225914928 0.8129967514629171 0  0.6570553655912461 0.8229087948693581 0  0.6363870506537688 0.8354032268212688 0  0.617375468351841 0.8502978503657798 0  0.6002978503657798 0.867375468351841 0  0.5854032268212687 0.8863870506537689 0  0.572908794869358 0.9070553655912463 0  0.5629967514629171 0.9290790225914929 0  0.5558116365147896 0.9521368671424885 0  0.5514582251803892 0.9758926639489355 0  0.55 0.9999999999999999 0  0.45 0.9999999999999999 0  0.4485417748196108 0.9758926639489353 0  0.4441883634852104 0.9521368671424885 0  0.4370032485370829 0.9290790225914928 0  0.427091205130642 0.9070553655912463 0  0.4145967731787313 0.8863870506537688 0  0.3997021496342201 0.8673754683518409 0  0.382624531648159 0.8502978503657798 0  0.363612949346231 0.8354032268212686 0  0.3429446344087536 0.822908794869358 0  0.3209209774085071 0.8129967514629171 0  0.2978631328575115 0.8058116365147896 0  0.2741073360510646 0.8014582251803892 0  0.25 0.8 0  0.2258926639489353 0.8014582251803892 0  0.2021368671424885 0.8058116365147896 0  0.1790790225914928 0.8129967514629171 0  0.1570553655912462 0.8229087948693581 0  0.1363870506537688 0.8354032268212688 0  0.117375468351841 0.8502978503657798 0  0.1002978503657797 0.867375468351841 0  0.08540322682126869 0.8863870506537689 0  0.07290879486935797 0.9070553655912463 0  0.06299675146291703 0.9290790225914929 0  0.05581163651478957 0.9521368671424885 0  0.0514582251803892 0.9758926639489355 0  0.04999999999999999 0.9999999999999999 0  0 1 0  -0 0.7000000000000001 0  0.0241073360510646 0.6985417748196108 0  0.04786313285751161 0.6941883634852104 0  0.07092097740850711 0.6870032485370829 0  0.09294463440875372 0.677091205130642 0  0.1136129493462312 0.6645967731787312 0  0.1326245316481591 0.6497021496342202 0  0.1497021496342202 0.632624531648159 0  0.1645967731787313 0.6136129493462312 0  0.177091205130642 0.5929446344087537 0  0.187003248537083 0.5709209774085071 0  0.1941883634852104 0.5478631328575115 0  0.1985417748196108 0.5241073360510646 0  0.2 0.5 0  0.1985417748196108 0.4758926639489353 0  0.1941883634852104 0.4521368671424885 0  0.1870032485370829 0.4290790225914928 0  0.177091205130642 0.4070553655912463 0  0.1645967731787313 0.3863870506537688 0  0.1497021496342202 0.3673754683518409 0  0.132624531648159 0.3502978503657798 0  0.113612949346231 0.3354032268212686 0  0.09294463440875361 0.322908794869358 0  0.07092097740850711 0.3129967514629171 0  0.04786313285751148 0.3058116365147896 0  0.02410733605106464 0.3014582251803892 0  0.6985417748196108 0.5241073360510646 0  0.7 0.5 0  0.6985417748196108 0.4758926639489353 0  0.6941883634852104 0.4521368671424885 0  0.6870032485370829 0.4290790225914928 0  0.677091205130642 0.4070553655912463 0  0.6645967731787312 0.3863870506537688 0  0.6497021496342201 0.3673754683518409 0  0.632624531648159 0.3502978503657798 0  0.613612949346231 0.3354032268212686 0  0.5929446344087537 0.322908794869358 0  0.5709209774085071 0.3129967514629171 0  0.5478631328575114 0.3058116365147896 0  0.5241073360510646 0.3014582251803892 0  0.4999999999999999 0.3 0  0.4758926639489353 0.3014582251803892 0  0.4521368671424885 0.3058116365147896 0  0.4290790225914928 0.3129967514629171 0  0.4070553655912462 0.3229087948693581 0  0.3863870506537688 0.3354032268212687 0  0.367375468351841 0.3502978503657798 0  0.3502978503657798 0.367375468351841 0  0.3354032268212687 0.3863870506537689 0  0.322908794869358 0.4070553655912464 0  0.3129967514629171 0.4290790225914929 0  0.3058116365147896 0.4521368671424885 0  0.3014582251803892 0.4758926639489354 0  0.3 0.4999999999999999 0  0.3014582251803892 0.5241073360510646 0  0.3058116365147896 0.5478631328575115 0  0.3129967514629171 0.5709209774085071 0  0.3229087948693581 0.5929446344087538 0  0.3354032268212687 0.6136129493462312 0  0.3502978503657798 0.632624531648159 0  0.367375468351841 0.6497021496342202 0  0.3863870506537689 0.6645967731787313 0  0.4070553655912463 0.677091205130642 0  0.4290790225914929 0.6870032485370829 0  0.4521368671424885 0.6941883634852104 0  0.4758926639489354 0.6985417748196108 0  0.4999999999999999 0.7 0  0.5241073360510646 0.6985417748196108 0  0.5478631328575116 0.6941883634852104 0  0.5709209774085071 0.6870032485370829 0  0.5929446344087537 0.677091205130642 0  0.6136129493462312 0.6645967731787312 0  0.6326245316481591 0.6497021496342202 0  0.6497021496342202 0.632624531648159 0  0.6645967731787312 0.6136129493462312 0  0.677091205130642 0.5929446344087537 0  0.6870032485370829 0.5709209774085071 0  0.6941883634852104 0.5478631328575115 0  0 0.15 0  1 0.15 0  1 0.85 0  0 0.8500000000000001 0  0 0.075 0  1 0.075 0  1 0.925 0  0 0.925 0  0.5 0.8127595604293815 0  0.5069440078039168 0.190422209288238 0  0.25 0.3127595604293815 0  0.756944007803917 0.3095777907117619 0  0.756944007803917 0.6904222092882382 0  0.25 0.6872404395706185 0  0 0.225 0  0.4255768646051012 0.2241073097134061 0  1 0.7749999999999999 0  0.6773391559270888 0.2766774022734219 0  1 0.225 0  0.6755768646051011 0.7241073097134062 0  0 0.7750000000000001 0  0.5818971135297744 0.2287925518358889 0  0.8318971135297746 0.728792551835889 0  0.1659156081861886 0.7301636995921477 0  0.08376842746533225 0.2299656297760495 0  0.4236002201977974 0.7746535834185855 0  0.0840843918138115 0.7698363004078523 0  0.3340843918138113 0.7301636995921477 0  0.3340843918138114 0.2698363004078523 0  0.9159156081861887 0.2301636995921477 0  0.5840843918138116 0.7698363004078522 0  0.1659156081861887 0.2698363004078523 0  0.9162315725346678 0.7700343702239506 0  0.8340843918138114 0.2698363004078523 0  0.75 0.6146645247768686 0  0.5 0.1125158665330878 0  0.75 0.3874841334669124 0  0.2504983345544904 0.6122915843562002 0  0.2504983345544902 0.3877084156437999 0  0.5 0.8879783056303169 0  0.7005361650220154 0.3333055947145943 0  0.70416808765371 0.6599554817221275 0  0.449930214263529 0.1678187287522426 0  0.2247310981387008 0.7415600637745463 0  0.5155081196221678 0.7563797802146907 0  0.2752689018612993 0.2584399362254537 0  0.05605196690611226 0.8246131191226815 0  0.9439480330938878 0.1
[...]
<PointData  Scalars="Temperature"> 
<DataArray  type="Float64"  Name="Temperature"  format="ascii">2.3110538403319225e+01  2.3611190573368500e+01  2.3605345883472509e+01  2.3598009541791733e+01  2.3576595260968627e+01  2.3541198409616854e+01  2.3491019184136785e+01  2.3424295081754813e+01  2.3342145603433895e+01  2.3244249703685881e+01  2.3129442377171436e+01  2.2999531013028435e+01  2.2857767955946883e+01  2.2706468255520573e+01  2.2547384446777677e+01  2.2385580103406966e+01  2.2223943455588810e+01  2.2064752630901346e+01  2.1914796037218579e+01  2.1773092419600850e+01  2.1645163988232117e+01  2.1532166810922831e+01  2.1430719557297294e+01  2.1346638340547088e+01  2.1277144842442183e+01  2.1226355216478343e+01  2.1187734904719612e+01  2.1166122310454845e+01  2.1158365265676565e+01  2.0936294384828443e+01  2.0927868486144884e+01  2.0902200786488017e+01  2.0859181315087245e+01  2.0803836206990784e+01  2.0736130113649843e+01  2.0661203397176472e+01  2.0585384331793211e+01  2.0508602102452283e+01  2.0434877321216188e+01  2.0366590112469584e+01  2.0305050566810575e+01  2.0251227775386059e+01  2.0205428129408940e+01  2.0167091619376727e+01  2.0135422427128994e+01  2.0110074109983291e+01  2.0089716686018818e+01  2.0073845862895411e+01  2.0061476748807817e+01  2.0052096632201142e+01  2.0045149513138313e+01  2.0040190980262022e+01  2.0036883185521610e+01  2.0034734201556795e+01  2.0033545176903818e+01  2.0033167571067690e+01  2.0031284496215061e+01  2.0030735415301603e+01  2.0033194045878307e+01  2.0039590418681463e+01  2.0048730399335891e+01  2.0059612413165258e+01  2.0071596366194136e+01  2.0083564230344653e+01  2.0095338839761236e+01  2.0105558711810541e+01  2.0114065368494433e+01  2.0119031300042202e+01  2.0121074646996718e+01  2.0119356445034562e+01  2.0114309504743908e+01  2.0107427260443213e+01  2.0097941260865721e+01  2.0086968434955580e+01  2.0075575277370813e+01  2.0064056237805200e+01  2.0052943187864059e+01  2.0043134970243671e+01  2.0034305576587123e+01  2.0026970616504382e+01  2.0020967586435866e+01  2.0016398565983867e+01  2.0013391387451474e+01  2.0012224017563938e+01  2.0004889176715370e+01  2.0005165443697962e+01  2.0005413292632515e+01  2.0006074478858199e+01  2.0007110440740632e+01  2.0008552055222154e+01  2.0010585261261781e+01  2.0013362927642287e+01  2.0017015079349999e+01  2.0021769899379390e+01  2.0027918485393084e+01  2.0035715072544786e+01  2.0045230848375660e+01  2.0056668419308313e+01  2.0069712204254479e+01  2.0084502981712028e+01  2.0100075794274165e+01  2.0116411366648919e+01  2.0131516689479760e+01  2.0145292828155636e+01  2.0156245269405208e+01  2.0164092252307341e+01  2.0167179200574044e+01  2.0166831913372480e+01  2.0162528990310594e+01  2.0155500554035733e+01  2.0149162073580460e+01  2.0146342696558172e+01  2.0179890074837260e+01  2.0187827244127551e+01  2.0207018268722532e+01  2.0234848025443810e+01  2.0269835366031394e+01  2.0312453177198066e+01  2.0361823771446801e+01  2.0418174047444374e+01  2.0479894970724352e+01  2.0547013605087532e+01  2.0616287719347085e+01  2.0685685718100601e+01  2.0751619171780590e+01  2.0810557540671123e+01  2.0859460404524540e+01  2.0894338562281913e+01  2.0913597061174841e+01  2.0916852501470604e+01  2.0902875255467503e+01  2.0875910811328588e+01  2.0836212220047436e+01  2.0786650845390263e+01  2.0731111919221579e+01  2.0673783347370545e+01  2.0619624551392711e+01  2.0578315470163201e+01  2.0559752351920196e+01  2.0561070354747699e+01  2.1247065853947706e+01  2.1247854442919692e+01  2.1252232107775583e+01  2.1259915294317359e+01  2.1271354168017069e+01  2.1287013169484748e+01  2.1307827011970122e+01  2.1336353734413571e+01  2.1371918254582258e+01  2.1413774664747926e+01  2.1467916367741665e+01  2.1532278276571216e+01  2.1609557215842667e+01  2.1698022538591150e+01  2.1798291694881968e+01  2.1910400646633050e+01  2.2033740391258132e+01  2.2167315856034435e+01  2.2309121008518488e+01  2.2454541938968699e+01  2.2598394036189106e+01  2.2734755789924222e+01  2.2858935705563393e+01  2.2964199160294079e+01  2.3043265010336263e+01  2.3093494652789460e+01  2.0150457206474123e+01  2.0157528578912839e+01  2.0168616619492667e+01  2.0183946436305163e+01  2.0204492836620766e+01  2.0231138471234829e+01  2.0265021532142057e+01  2.0307424340668689e+01  2.0359913512451893e+01  2.0422218209600395e+01  2.0496537249838109e+01  2.0583417704462811e+01  2.0682241196973401e+01  2.0792724338410277e+01  2.0912486971638430e+01  2.1038575375614116e+01  2.1166101100757988e+01  2.1292244824337374e+01  2.1407106062225228e+01  2.1511744548293674e+01  2.1596367151521253e+01  2.1660296902048838e+01  2.1696984845263579e+01  2.1711812553209263e+01  2.1696914804439444e+01  2.1660885449840094e+01  2.1601720072174071e+01  2.1525724021315686e+01  2.1437023080346414e+01  2.1337869926929308e+01  2.1234623884310068e+01  2.1125962862799899e+01  2.1018686116466696e+01  2.0913646616474384e+01  2.0813123305179595e+01  2.0719375871196096e+01  2.0631938585388422e+01  2.0553385254411673e+01  2.0482557432514096e+01  2.0420420915128332e+01  2.0366028719820925e+01  2.0319195061895563e+01  2.0279201096371519e+01  2.0246212026294778e+01  2.0218867033276698e+01  2.0196587589050505e+01  2.0178879819299468e+01  2.0165365835613859e+01  2.0155556307451317e+01  2.0149436806958324e+01  2.0146364424347638e+01  2.0146849897841363e+01  2.3440450090415172e+01  2.0032511092972893e+01  2.0008147316099379e+01  2.0858522981808495e+01  2.3565599345545266e+01  2.0032033342067738e+01  2.0006025719330800e+01  2.0666319642875600e+01  2.0283436957015319e+01  2.0946711876557984e+01  2.2178572341734398e+01  2.0177953145769859e+01  2.0083508937052244e+01  2.1035092060606949e+01  2.3256758871521033e+01  2.1334539436067949e+01  2.0010471993230343e+01  2.0323662115844979e+01  2.0031341585067814e+01  2.0133970958418381e+01  2.1085358745242367e+01  2.0615298156665268e+01  2.0041958585499248e+01  2.1088414226567835e+01  2.3130845329024282e+01  2.0451825451401447e+01  2.1068967314280084e+01  2.0722237260362800e+01  2.1798976758137570e+01  2.0052530913758275e+01  2.0206734322191828e+01  2.2718169476900794e+01  2.0017994917076344e+01  2.0101998448812367e+01  2.0105788062091310e+01  2.1023173571024323e+01  2.0167229725194783e+01  2.1251954353188182e+01  2.1965171555221453e+01  2.0220529236710956e+01  2.0255035991648267e+01  2.0128603445170583e+01  2.1243189462386770e+01  2.0948531712600101e+01  2.0309010200975678e+01  2.2163501695506636e+01  2.0923377268785170e+01  2.0042245910661055e+01  2.3335026237739928e+01  2.0011294270194490e+01  2.1012723221296188e+01  2.0087723418151747e+01  2.0222856929226932e+01  2.0347446070487042e+01  2.1200832896954264e+01  2.2437869628277308e+01  2.0910947962533175e+01  2.1841835932859471e+01  2.0203693344744362e+01  2.1039842546004994e+01  2.0151197384536459e+01  2.0122870888949414e+01  2.1795107434148203e+01  2.1461817941458534e+01  2.0162293134382956e+01  2.0182090565824851e+01  2.2455529196101704e+01  2.0845158217643856e+01  2.0724208774573402e+01  2.0071811873727214e+01  2.0115394757077940e+01  2.0434902515198175e+01  2.1482503763491163e+01  2.1693963633043580e+01  2.0149745102682743e+01  2.0196023633733240e+01  2.0445013179850292e+01  2.0061576280810026e+01  2.0151496075628490e+01  2.0136720356894138e+01  2.1045371714652827e+01  2.1631112687769026e+01  2.0564921825507060e+01  2.0608608769431996e+01  2.0802541794460485e+01  2.0028362819651665e+01  2.0027345132571256e+01  2.0365286285188670e+01  2.2953795089914131e+01  2.1163893342886809e+01  2.0059632103445690e+01  2.1008066932300888e+01  2.2917403110501699e+01  2.1170996068981328e+01  2.0036477957985415e+01  2.0081838561641529e+01  2.0014080727766206e+01  2.3137286962913507e+01  2.0037841748130006e+01  2.0008668934103135e+01  2.3463817063733256e+01  2.0805757050888776e+01  2.0129040120460676e+01  2.0058737703012667e+01  2.0833238784934881e+01  2.0109695848451246e+01  2.0170406080196326e+01  2.0767418679385546e+01  2.2669884982268268e+01  2.0058749205777950e+01  2.1650533989945611e+01  2.1227235779307978e+01  2.0943818806691727e+01  2.3203217548013235e+01  2.0018199289224505e+01  2.1294872429101975e+01  2.2216050371408013e+01  2.0224200212700755e+01  2.0042714684846334e+01  2.1961857185867835e+01  2.1078277515755392e+01  2.0300716243004242e+01  2.0351819207750356e+01  2.0448471854579932e+01  2.1196732971681179e+01  2.0168301233809711e+01  2.1502454569373704e+01  2.0114977553985590e+01  2.0280965739121289e+01  2.0451428912408705e+01  2.0623446314402631e+01  2.0243505713405803e+01  2.0044842687255581e+01  2.0533698722307104e+01  2.0958114102691674e+01  2.1937937127756676e+01  2.0714071672461159e+01  2.2686920779175768e+01  2.0085839416513050e+01  2.0245173158049500e+01  2.1126107445806060e+01  2.3254838435542950e+01  2.0114162399200922e+01  2.0039148046398630e+01  2.1043257156622939e+01  2.0253858463895835e+01  2.0969244603393143e+01  2.0032060959633551e+01  2.0133284793629894e+01  2.0011938909412276e+01  2.1211859349836136e+01  2.0191498002060449e+01  2.0222618073245066e+01  2.1056695382187851e+01  2.3354753598968930e+01  2.0100002246403676e+01  2.0133204942957832e+01  2.0093365374429016e+01  2.1410702869501741e+01  2.2047436770546696e+01  2.1089303739394957e+01  2.1789911618054465e+01  2.1200617312704530e+01  2.1141176172725896e+01  2.0929893708742270e+01  2.0136002818133516e+01  2.0189224159551344e+01  2.0184202874744532e+01  2.0179973477682836e+01  2.0233572979958801e+01  2.0009316662375426e+01  2.1192526457340875e+01  2.0007068562113524e+01  2.0030550318061394e+01  2.3161019699633684e+01  2.0031489753464189e+01  2.3599608066243825e+01  2.0032460778903282e+01  2.0035021120464467e+01  2.3511535499588231e+01  2.0005224835931820e+01  2.0593516093716406e+01  2.0011611914385938e+01  2.0757076215674868e+01  2.0713667475854663e+01  2.1786155986892780e+01  2.1294024873303723e+01  2.1065768127586352e+01  2.1961615486240760e+01  2.0285218216291472e+01  2.0019681335681501e+01  2.0812461017751684e+01  2.2441440302438178e+01  2.0067245017349787e+01  2.0081372013700165e+01  2.0379494898126399e+01  2.0011951773288803e+01  2.0255207795414169e+01  2.0856008448540869e+01  2.1164927775728007e+01  2.2148763017728733e+01  2.2897392800828317e+01  2.0527690763357256e+01  2.0863150263331061e+01  2.0176398378037351e+01  2.0153181572382611e+01  2.0294176194701382e+01  2.0138248890968519e+01  2.0157752490838579e+01  2.0007030392439731e+01  2.3530749231864647e+01  2.3067816276838926e+01  2.0054744870307616e+01  2.0920435130572788e+01  2.2382222900270488e+01  2.0077975176898040e+01  2.0726531135927079e+01  2.0123277628081553e+01  2.0046852636082573e+01  2.0271109326584334e+01  2.1514847818319634e+01  2.0164242788621777e+01  2.0515873134159232e+01  2.3580209197072310e+01  2.0033497739546618e+01  2.0005840499602723e+01  2.0628514380209655e+01  2.0516274175202543e+01  2.0134827236866084e+01  2.1166780624241081e+01  2.0846277545171333e+01  2.0910992162861444e+01  2.0045977669416814e+01  2.0034682032959378e+01  2.0618934055596867e+01  2.3313150797130579e+01  2.3238649896154339e+01  2.3388799042571346e+01  2.1407247718567035e+01  2.1285918510586793e+01  2.3033977575507894e+01  2.0336190338995699e+01  2.1243385910786440e+01  2.0942942805573765e+01  2.0075444873519441e+01  2.0294579328605966e+01  2.0182400521003938e+01  2.1665776522340231e+01  2.0196787544198344e+01  2.0009601249601708e+01  2.0147550050935791e+01  2.0105001205893569e+01  2.0614139908409378e+01  2.0159930291664185e+01  2.0094523695034830e+01  2.1104451512625253e+01  2.0984440719234680e+01  2.0130769538691190e+01  2.0166287172272639e+01  2.1660158873253327e+01  2.1823056403129872e+01  2.0270502910638005e+01  2.0032534354613919e+01  2.0189395033318139e+01  2.0405829478761650e+01  2.1986043388536203e+01  2.0676608382390942e+01  2.2553797914540795e+01  2.0824730015322562e+01  2.0869470345108013e+01  2.1038084930646438e+01  2.2135969877273833e+01  2.2258488160055663e+01  2.0967174424716681e+01  2.0202871459832298e+01  2.0178982033112394e+01  2.2004390738680502e+01  2.1150252791658684e+01  2.1741175303434790e+01  2.2514571841106839e+01  2.0871576129596573e+01  2.1302540171168822e+01  2.0239498497485137e+01  2.0141201346497013e+01  2.0118461725184179e+01  2.1512952347587738e+01  2.1590390621447710e+01  2.2816942761610072e+01  2.0108877789508753e+01  2.0092335529459849e+01  2.0088020529842968e+01  2.1319765592576676e+01  2.0126378258669735e+01  2.0299945380310771e+01  2.1360237247540987e+01  2.0333903541258518e+01  2.0391048734660821e+01  2.0217601503707119e+01  2.0985105627318919e+01  2.0984523390497891e+01  2.0247739060108788e+01  2.0360045086943533e+01  2.0014060508246946e+01  2.3065439393636176e+01  2.0107638774850116e+01  2.0718999099698241e+01  2.0031373447695472e+01  2.0023942189486196e+01  2.0142954867741580e+01  2.0107062584730777e+01  2.0096010980745248e+01  2.0951874468865494e+01  2.1501800223898503e+01  2.1634210753526787e+01  2.0147148664773880e+01  2.0171511159133210e+01  2.0561647971576399e+01  2.0627686265477404e+01  2.0947974956024467e+01  2.0521556092456937e+01  2.0065954803088655e+01  2.0117045126440072e+01  2.0048424996516189e+01  2.0986648743919009e+01  2.0736452421358074e+01  2.0005017542653942e+01  2.0032172549170394e+01  2.3608742432976218e+01  2.0560259365725337e+01  2.1081876037914444e+01  2.0531082583143810e+01  2.1684584967513008e+01  2.0392678099040253e+01  2.0138004318106297e+01  2.0073444811240783e+01  2.0943331366288156e+01  2.1140091655917146e+01  2.1888964449259454e+01  2.0142084829288173e+01  2.0035398087748231e+01  2.0030905258781321e+01  2.0023550601692826e+01  2.0036472929202166e+01  2.0227205762267875e+01  2.1834263603508720e+01  2.1381933852834852e+01  2.0167437511488298e+01  2.0150947165166514e+01  2.0201260718669502e+01  2.0178996752100627e+01  2.0105360359626925e+01  2.1518538937028758e+01  2.1376620703901995e+01  2.2783725087527312e+01  2.1796980420008470e+01  2.0520192688189418e+01  2.3017561715569386e+01  2.1125818187910788e+01  2.0644993444757496e+01  2.0160532591671210e+01  2.3212319619319008e+01  2.1328223121044925e+01  2.0067001205308362e+01  2.0076566809060580e+01  2.0013916210614099e+01  2.1002957696444614e+01  2.2607240817508728e+01  2.0780327312407156e+01  2.1022522912395679e+01  2.1090006550230374e+01  2.1066460508734160e+01  2.1721479048655148e+01  2.0155370516856607e+01  2.3393969732840095e+01  2.0021586143479734e+01  2.1920392851929435e+01  2.0418979097035717e+01  2.1025259783160514e+01  2.0034431221213435e+01  2.0087889196535027e+01  2.0322962471351392e+01  2.1669545620261047e+01  2.0169003629876666e+01  2.2367415570821841e+01  2.0131432898163041e+01  2.0011569572022054e+01  2.1232430193565179e+01  2.0388076076118988e+01  2.1709524420297218e+01  2.0063185611763377e+01  2.1032914815578213e+01  2.0032683325099786e+01  2.0583237579238979e+01  2.3600389599313196e+01  2.0005281100862412e+01  2.0884310262501941e+01  2.0161402636077888e+01  2.0024961012802706e+01  2.0094792836258939e+01  2.1164778026251827e+01  2.0338738535062781e+01  2.0044789754989907e+01  2.0210751093693471e+01  2.3097429596740319e+01  2.1261118505834148e+01  2.1136221825099170e+01  2.0970478215367525e+01  2.0125600313103707e+01  2.0590400888199152e+01  2.0689265253492465e+01  2.1226258864369516e+01  2.0036302988308790e+01  2.1102439669967271e+01  2.0123767098078414e+01  2.0838096949534005e+01  2.2280287391872136e+01  2.1192261014602053e+01  2.0053704515544016e+01  2.2299647488810798e+01  2.0340328071897982e+01  2.0049574921213171e+01  2.0073543277271646e+01  2.0073037306293628e+01  2.0210839657382419e+01  2.0213723551026288e+01  2.0014775658830498e+01  2.0910923659983034e+01  2.2597052156449514e+01  2.0730685642612798e+01  2.0255111097825825e+01  2.0143406557126497e+01  2.1193433478035043e+01  2.0993399257843414e+01  2.0010298992496956e+01  2.2095307980802179e+01  2.0985877076464618e+01  2.0971628702452559e+01  2.0174120477936185e+01  2.1121681722522148e+01  2.0822845363178907e+01  2.2778102677746713e+01  2.0054841487369735e+01  2.0902499434739980e+01  2.1137800867738697e+01  2.0042805134881981e+01  2.0031002961285388e+01  2.0033728739451774e+01  2.0015265356327884e+01  2.3325485796457169e+01  2.0471252726762700e+01  2.2180398228641689e+01  2.0195509584279666e+01  2.0905667936670707e+01  2.0702538719499177e+01  2.0452064391146656e+01  2.1101020789150208e+01  2.1850641533108949e+01  2.2333612735810096e+01  2.0067540940977175e+01  2.0753371788083548e+01  2.0040820672194457e+01  2.0040298165201627e+01  2.1219774838245428e+01  2.0432035342783315e+01  2.2925428763509586e+01  2.0054324037962040e+01  2.2827449074988703e+01  2.2944563735990503e+01  2.0016128911922806e+01  2.0012801043769006e+01  2.3125208270783137e+01  2.3179282644295732e+01  2.1571949301707232e+01  2.0398211635088597e+01  2.0187562777219686e+01  2.0142911937550714e+01  2.0420339164298248e+01  2.0339088919792442e+01  2.0187251490200524e+01  2.0009457755551722e+01  2.0198184825819485e+01  2.0502499453078851e+01  2.1841056022510525e+01  2.1729987785075124e+01  2.0122262242106331e+01  2.0146710215213634e+01  2.0170621254398053e+01  2.0398001045701413e+01  2.0110302942695199e+01  2.1750583290270392e+01  2.1223131573453347e+01  2.0977632949141039e+01  2.1361755229015309e+01  2.1248631644112130e+01  2.2097641979738153e+01  2.0007594282013738e+01  2.3477984105018308e+01  2.3443339960739486e+01  2.3436268494833335e+01  2.0010412100834955e+01  2.0008289583659941e+01  2.0038744745397800e+01  2.0898968646932214e+01  2.0057033134568481e+01  2.1382479483657246e+01  2.0083758586884137e+01  2.0039907658009177e+01  2.0034473912050352e+01  2.0868312100145499e+01  2.0806625020306075e+01  2.0842624997766819e+01  2.0164291214450589e+01  2.3493858791092162e+01  2.0767007171287421e+01  2.0034260148319184e+01  2.0019806336333236e+01  2.0785910819900472e+01  2.0266486967745280e+01  2.0689748528364781e+01  2.2022178201921534e+01  2.1171033448017827e+01  2.0030559981260478e+01  2.1230887003968327e+01  2.0143210089717108e+01  2.0064466725618573e+01  2.0070034949957112e+01  2.0047375020927372e+01  2.2536561238988121e+01  2.0258909052481016e+01  2.3168471319769242e+01  2.0052483259458597e+01  2.0913591257517183e+01  2.0066787442018960e+01  2.1335064089625956e+01  2.0801962530883060e+01  2.0008249931970500e+01  2.0307739794364885e+01  2.3083774214505574e+01  2.0077143276679504e+01  2.0031239787306706e+01  2.0160778608830650e+01  2.1799202170916974e+01  2.0780923857686769e+01  2.0121614300822131e+01  2.0324290695964265e+01  2.0233001522460526e+01  2.0212159088868773e+01  2.2566565187940792e+01  2.1587126810683593e+01  2.0656873552086594e+01  2.0241928390017648e+01  2.0081666703872141e+01  2.0159777134388062e+01  2.0240446223284398e+01  2.0231043880040207e+01  2.0920543495387260e+01  2.1271734140580399e+01  2.0747922625423552e+01  2.0032350598272114e+01  2.1212715145536933e+01  2.0056380579461347e+01  2.2085952661578592e+01  2.1079968570898991e+01  2.1130847242649562e+01  2.1086661192274725e+01  2.1239612192834944e+01  2.0120343028224074e+01  2.0498605788846472e+01  2.0123403755387546e+01  2.0117536730854230e+01  2.0099277626902392e+01  2.0297214709376842e+01  2.0016359126017441e+01  2.0049647962947201e+01  2.0355416664720387e+01  2.3169645035496689e+01  2.3275605853854707e+01  2.2808339262616954e+01  2.0288657762304052e+01  2.0828994911303351e+01  2.0757514850461426e+01  2.0115211532048509e+01  2.0155439343586007e+01  2.2627773110184034e+01  2.1578681429629345e+01  2.0018981749027965e+01  2.1103102599210963e+01  2.1262298151161065e+01  2.0086007314343270e+01  2.2497408181522456e+01  2.0185857867166249e+01  2.1397750015530786e+01  2.0152379881712797e+01  2.1511417429210464e+01  2.0437497699509183e+01  2.0464278828932336e+01  2.0184930848093824e+01  2.1974474554806864e+01  2.0257592667981768e+01  2.0110010938868644e+01  2.0208129835382969e+01  2.0192822176781853e+01  2.1743361104020082e+01  2.0241686466718043e+01  2.0312917246178881e+01  2.1528092198379060e+01  2.0373032658481165e+01  2.0129761243476676e+01  2.1209898209558087e+01  2.0007488709746262e+01  2.3490330892871555e+01  2.128