<?xml version="1.0"?>
<VTKFile type="UnstructuredGrid"  version="0.1"  >
<UnstructuredGrid>
<Piece  NumberOfPoints="2331" NumberOfCells="4248">
<Points>
<DataArray  type="Float64"  NumberOfComponents="3"  format="ascii">0 0.3 0  0 0 0  0.04999999999999999 0 0  0.0514582251803892 0.02410733605106462 0  0.0558116365147896 0.04786313285751154 0  0.06299675146291706 0.07092097740850717 0  0.07290879486935808 0.09294463440875382 0  0.08540322682126872 0.1136129493462312 0  0.1002978503657798 0.132624531648159 0  0.117375468351841 0.1497021496342203 0  0.1363870506537689 0.1645967731787313 0  0.1570553655912463 0.177091205130642 0  0.1790790225914929 0.187003248537083 0  0.2021368671424885 0.1941883634852104 0  0.2258926639489354 0.1985417748196108 0  0.25 0.2 0  0.2741073360510646 0.1985417748196108 0  0.2978631328575116 0.1941883634852104 0  0.3209209774085071 0.187003248537083 0  0.3429446344087537 0.177091205130642 0  0.3636129493462312 0.1645967731787313 0  0.3826245316481591 0.1497021496342202 0  0.3997021496342202 0.132624531648159 0  0.4145967731787313 0.1136129493462312 0  0.427091205130642 0.09294463440875371 0  0.4370032485370829 0.07092097740850713 0  0.4441883634852104 0.04786313285751155 0  0.4485417748196108 0.02410733605106461 0  0.45 0 0  0.55 0 0  0.5514582251803892 0.02410733605106462 0  0.5558116365147896 0.04786313285751154 0  0.5629967514629171 0.07092097740850717 0  0.5729087948693581 0.09294463440875382 0  0.5854032268212688 0.1136129493462312 0  0.6002978503657798 0.132624531648159 0  0.617375468351841 0.1497021496342203 0  0.6363870506537689 0.1645967731787313 0  0.6570553655912463 0.177091205130642 0  0.6790790225914929 0.187003248537083 0  0.7021368671424885 0.1941883634852104 0  0.7258926639489354 0.1985417748196108 0  0.75 0.2 0  0.7741073360510646 0.1985417748196108 0  0.7978631328575116 0.1941883634852104 0  0.8209209774085071 0.187003248537083 0  0.8429446344087537 0.177091205130642 0  0.8636129493462312 0.1645967731787313 0  0.8826245316481591 0.1497021496342202 0  0.8997021496342202 0.132624531648159 0  0.9145967731787312 0.1136129493462312 0  0.927091205130642 0.09294463440875371 0  0.9370032485370829 0.07092097740850713 0  0.9441883634852104 0.04786313285751155 0  0.9485417748196108 0.02410733605106461 0  0.95 0 0  1 0 0  1 0.3 0  0.9758926639489353 0.3014582251803892 0  0.9521368671424885 0.3058116365147896 0  0.9290790225914928 0.3129967514629171 0  0.9070553655912461 0.3229087948693581 0  0.8863870506537688 0.3354032268212687 0  0.867375468351841 0.3502978503657798 0  0.8502978503657798 0.367375468351841 0  0.8354032268212687 0.3863870506537689 0  0.822908794869358 0.4070553655912464 0  0.8129967514629171 0.4290790225914929 0  0.8058116365147896 0.4521368671424885 0  0.8014582251803892 0.4758926639489354 0  0.8 0.4999999999999999 0  0.8014582251803892 0.5241073360510646 0  0.8058116365147896 0.5478631328575115 0  0.8129967514629171 0.5709209774085071 0  0.8229087948693581 0.5929446344087538 0  0.8354032268212688 0.6136129493462312 0  0.8502978503657798 0.632624531648159 0  0.867375468351841 0.6497021496342202 0  0.8863870506537689 0.6645967731787313 0  0.9070553655912463 0.677091205130642 0  0.9290790225914929 0.6870032485370829 0  0.9521368671424885 0.6941883634852104 0  0.9758926639489354 0.6985417748196108 0  1 0.7 0  1 1 0  0.95 1 0  0.9485417748196108 0.9758926639489353 0  0.9441883634852104 0.9521368671424885 0  0.9370032485370829 0.9290790225914928 0  0.927091205130642 0.9070553655912463 0  0.9145967731787312 0.8863870506537688 0  0.8997021496342201 0.8673754683518409 0  0.882624531648159 0.8502978503657798 0  0.863612949346231 0.8354032268212686 0  0.8429446344087537 0.822908794869358 0  0.8209209774085071 0.8129967514629171 0  0.7978631328575114 0.8058116365147896 0  0.7741073360510646 0.8014582251803892 0  0.75 0.8 0  0.7258926639489353 0.8014582251803892 0  0.7021368671424885 0.8058116365147896 0  0.6790790225914928 0.8129967514629171 0  0.6570553655912461 0.8229087948693581 0  0.6363870506537688 0.8354032268212688 0  0.617375468351841 0.8502978503657798 0  0.6002978503657798 0.867375468351841 0  0.5854032268212687 0.8863870506537689 0  0.572908794869358 0.9070553655912463 0  0.5629967514629171 0.9290790225914929 0  0.5558116365147896 0.9521368671424885 0  0.5514582251803892 0.9758926639489355 0  0.55 0.9999999999999999 0  0.45 0.9999999999999999 0  0.4485417748196108 0.9758926639489353 0  0.4441883634852104 0.9521368671424885 0  0.4370032485370829 0.9290790225914928 0  0.427091205130642 0.9070553655912463 0  0.4145967731787313 0.8863870506537688 0  0.3997021496342201 0.8673754683518409 0  0.382624531648159 0.8502978503657798 0  0.363612949346231 0.8354032268212686 0  0.3429446344087536 0.822908794869358 0  0.3209209774085071 0.8129967514629171 0  0.2978631328575115 0.8058116365147896 0  0.2741073360510646 0.8014582251803892 0  0.25 0.8 0  0.2258926639489353 0.8014582251803892 0  0.2021368671424885 0.8058116365147896 0  0.1790790225914928 0.8129967514629171 0  0.1570553655912462 0.8229087948693581 0  0.1363870506537688 0.8354032268212688 0  0.117375468351841 0.8502978503657798 0  0.1002978503657797 0.867375468351841 0  0.08540322682126869 0.8863870506537689 0  0.07290879486935797 0.9070553655912463 0  0.06299675146291703 0.9290790225914929 0  0.05581163651478957 0.9521368671424885 0  0.0514582251803892 0.9758926639489355 0  0.04999999999999999 0.9999999999999999 0  0 1 0  -0 0.7000000000000001 0  0.0241073360510646 0.6985417748196108 0  0.04786313285751161 0.6941883634852104 0  0.07092097740850711 0.6870032485370829 0  0.09294463440875372 0.677091205130642 0  0.1136129493462312 0.6645967731787312 0  0.1326245316481591 0.6497021496342202 0  0.1497021496342202 0.632624531648159 0  0.1645967731787313 0.6136129493462312 0  0.177091205130642 0.5929446344087537 0  0.187003248537083 0.5709209774085071 0  0.1941883634852104 0.5478631328575115 0  0.1985417748196108 0.5241073360510646 0  0.2 0.5 0  0.1985417748196108 0.4758926639489353 0  0.1941883634852104 0.4521368671424885 0  0.1870032485370829 0.4290790225914928 0  0.177091205130642 0.4070553655912463 0  0.1645967731787313 0.3863870506537688 0  0.1497021496342202 0.3673754683518409 0  0.132624531648159 0.3502978503657798 0  0.113612949346231 0.3354032268212686 0  0.09294463440875361 0.322908794869358 0  0.07092097740850711 0.3129967514629171 0  0.04786313285751148 0.3058116365147896 0  0.02410733605106464 0.3014582251803892 0  0.6985417748196108 0.5241073360510646 0  0.7 0.5 0  0.6985417748196108 0.4758926639489353 0  0.6941883634852104 0.4521368671424885 0  0.6870032485370829 0.4290790225914928 0  0.677091205130642 0.4070553655912463 0  0.6645967731787312 0.3863870506537688 0  0.6497021496342201 0.3673754683518409 0  0.632624531648159 0.3502978503657798 0  0.613612949346231 0.3354032268212686 0  0.5929446344087537 0.322908794869358 0  0.5709209774085071 0.3129967514629171 0  0.5478631328575114 0.3058116365147896 0  0.5241073360510646 0.3014582251803892 0  0.4999999999999999 0.3 0  0.4758926639489353 0.3014582251803892 0  0.4521368671424885 0.3058116365147896 0  0.4290790225914928 0.3129967514629171 0  0.4070553655912462 0.3229087948693581 0  0.3863870506537688 0.3354032268212687 0  0.367375468351841 0.3502978503657798 0  0.3502978503657798 0.367375468351841 0  0.3354032268212687 0.3863870506537689 0  0.322908794869358 0.4070553655912464 0  0.3129967514629171 0.4290790225914929 0  0.3058116365147896 0.4521368671424885 0  0.3014582251803892 0.4758926639489354 0  0.3 0.4999999999999999 0  0.3014582251803892 0.5241073360510646 0  0.3058116365147896 0.5478631328575115 0  0.3129967514629171 0.5709209774085071 0  0.3229087948693581 0.5929446344087538 0  0.3354032268212687 0.6136129493462312 0  0.3502978503657798 0.632624531648159 0  0.367375468351841 0.6497021496342202 0  0.3863870506537689 0.6645967731787313 0  0.4070553655912463 0.677091205130642 0  0.4290790225914929 0.6870032485370829 0  0.4521368671424885 0.6941883634852104 0  0.4758926639489354 0.6985417748196108 0  0.4999999999999999 0.7 0  0.5241073360510646 0.6985417748196108 0  0.5478631328575116 0.6941883634852104 0  0.5709209774085071 0.6870032485370829 0  0.5929446344087537 0.677091205130642 0  0.6136129493462312 0.6645967731787312 0  0.6326245316481591 0.6497021496342202 0  0.6497021496342202 0.632624531648159 0  0.6645967731787312 0.6136129493462312 0  0.677091205130642 0.5929446344087537 0  0.6870032485370829 0.5709209774085071 0  0.6941883634852104 0.5478631328575115 0  0 0.15 0  1 0.15 0  1 0.85 0  0 0.8500000000000001 0  0 0.075 0  1 0.075 0  1 0.925 0  0 0.925 0  0.5 0.8127595604293815 0  0.5069440078039168 0.190422209288238 0  0.25 0.3127595604293815 0  0.756944007803917 0.3095777907117619 0  0.756944007803917 0.6904222092882382 0  0.25 0.6872404395706185 0  0 0.225 0  0.4255768646051012 0.2241073097134061 0  1 0.7749999999999999 0  0.6773391559270888 0.2766774022734219 0  1 0.225 0  0.6755768646051011 0.7241073097134062 0  0 0.7750000000000001 0  0.5818971135297744 0.2287925518358889 0  0.8318971135297746 0.728792551835889 0  0.1659156081861886 0.7301636995921477 0  0.08376842746533225 0.2299656297760495 0  0.4236002201977974 0.7746535834185855 0  0.0840843918138115 0.7698363004078523 0  0.3340843918138113 0.7301636995921477 0  0.3340843918138114 0.2698363004078523 0  0.9159156081861887 0.2301636995921477 0  0.5840843918138116 0.7698363004078522 0  0.1659156081861887 0.2698363004078523 0  0.9162315725346678 0.7700343702239506 0  0.8340843918138114 0.2698363004078523 0  0.75 0.6146645247768686 0  0.5 0.1125158665330878 0  0.75 0.3874841334669124 0  0.2504983345544904 0.6122915843562002 0  0.2504983345544902 0.3877084156437999 0  0.5 0.8879783056303169 0  0.7005361650220154 0.3333055947145943 0  0.70416808765371 0.6599554817221275 0  0.449930214263529 0.1678187287522426 0  0.2247310981387008 0.7415600637745463 0  0.5155081196221678 0.7563797802146907 0  0.2752689018612993 0.2584399362254537 0  0.05605196690611226 0.8246131191226815 0  0.9439480330938878 0.1
[...]
<PointData  Scalars="Temperature"> 
<DataArray  type="Float64"  Name="Temperature"  format="ascii">2.8011413619987565e+30  -1.5365083743937174e+26  -4.5749248941991432e+26  7.3039180760930340e+26  -3.1757050934039838e+27  2.5066114500122573e+28  -7.2995504446859058e+28  6.3510448630044266e+29  8.6604163624779809e+30  -7.1351747864706889e+30  -1.0577892076115585e+33  -1.2841408028417764e+34  -9.9874627856522986e+34  -6.5560648471353956e+35  3.3436814837076021e+36  1.4010248192398782e+37  -1.3028455719796034e+37  2.4154955177562680e+38  -3.4926522802624102e+38  -8.0846539374587126e+38  1.7468366850599610e+40  4.7774390635961724e+40  2.8490775654025098e+40  8.7912412917699520e+40  -4.7904346597292881e+40  -1.1650855139119693e+40  -5.7227702878421607e+39  1.4638581464898157e+39  -1.1762745496901795e+39  -2.8683655988381658e+40  5.2538150113331444e+40  -9.5855995970921201e+40  1.8136073584053032e+42  -1.0657309958823266e+43  -1.1755723910689709e+44  7.9190131530716649e+43  3.1315224246353438e+45  4.6160781934109363e+45  1.9048526364604965e+46  -4.8696807533976387e+46  7.1578292032418413e+47  -5.8625445870669949e+47  1.4976112657873647e+46  2.2582874374329487e+46  1.5222141761471575e+47  -4.8187687367723360e+45  -4.9096285394778748e+46  1.0180145126502673e+45  -2.8130502595842450e+45  1.2759286176195095e+44  -1.8556102714470336e+44  5.8924086446658632e+43  -3.3074256493678608e+42  -1.2521234722049659e+42  -1.1183399482930672e+41  2.9565606355062768e+40  -1.1327248342016283e+39  2.6949913201755590e+47  7.8722259585310840e+47  5.6392004061279341e+48  3.7690839435222881e+49  2.0418445219619742e+50  1.7929697340877260e+51  3.9626464347808399e+51  -1.9873373914356850e+51  3.6345722611172054e+53  -1.9268298223189016e+54  5.3470314171620235e+54  -1.1048328291129737e+56  4.4263379882762584e+56  3.8387581910539640e+57  -2.6157547778092620e+58  8.4450356760524471e+58  -5.7415619338955680e+59  4.8975810746577326e+60  -4.4042837333497773e+60  1.4981654083260536e+62  3.2245374477906136e+63  5.9553815631910137e+63  9.5093159441450100e+64  -1.4132677055713907e+64  -1.7184580487465867e+66  3.3141635922122290e+66  1.1982546857568213e+67  8.1960313679223230e+63  -4.3405925535485316e+64  6.2896232055238421e+64  5.9873015490138791e+64  1.0231769779517899e+66  -1.1901610449942574e+66  5.7337171665609152e+66  -3.5310369995909523e+66  2.7616301180935715e+64  4.4821785275087234e+65  1.4626768354514526e+65  -2.4074438265033013e+64  -2.2686096246844350e+63  -3.1902411806741305e+61  -2.0337091676411136e+61  -1.0122938152000982e+60  -4.9282592285783007e+58  3.6414846801426694e+58  -1.3853463849414661e+57  -6.2563100461094294e+56  1.9041472144087538e+56  -1.1193813572091051e+55  5.2196709539418361e+54  -4.2059028593296979e+53  1.7832125479817262e+53  5.2777313535231554e+51  -1.6489043036263863e+51  -9.8351540805031021e+50  -2.1698899225298329e+49  6.0657491962193366e+48  -9.9594279253402794e+49  1.2813375545461133e+50  1.6450840638895420e+50  6.5606107388120210e+49  -8.2482159467674526e+49  -5.8223517771411496e+49  4.8474100347355134e+48  1.5606542628360535e+48  -2.7976562627200772e+47  7.0355669076138991e+46  -1.1481278539684711e+46  -1.6631757157220449e+45  3.6844050177204107e+44  -5.9348959220465478e+43  -7.5527034340084500e+41  2.6023261249654493e+41  2.6895219810059923e+40  -4.5047335797076662e+37  2.8283658529168149e+38  -2.1927424532376052e+37  -1.3969793581021836e+36  -5.5459866050207785e+35  -1.5163846375875572e+35  -7.0557011481752578e+33  1.0862885851819363e+34  1.1179137510785492e+34  -6.9637668484029225e+36  1.0101076725733442e+37  1.1955188713788031e+38  -3.9024170949758964e+38  -5.4979105895642212e+39  -1.5242604811005826e+40  1.2748614999003247e+41  2.2722044785756645e+41  -1.1058315575236126e+41  5.2405356580939346e+41  8.7963524293938699e+40  -1.3923224051598803e+40  1.0364585426982903e+40  -3.7220754413364294e+39  -1.5135777320120293e+39  2.5721849054565470e+38  -6.3558487947379916e+37  1.8367479384911857e+37  -5.6951514719613747e+36  -6.5115212902847580e+35  3.1980083987191922e+34  -1.1482942731989717e+34  -4.1182202512935517e+33  6.6497705059281508e+31  -9.2530194592172305e+31  -1.2430117827048318e+31  -1.0842887644618568e+55  2.0027707203286871e+56  5.0000656775969699e+54  1.8311157409477573e+55  3.2666371751758812e+53  -1.5747507365288231e+53  2.4824992784466637e+52  -1.6230891941302603e+50  -5.7750380294808301e+50  -1.8207519826392151e+49  -7.7103944457408747e+48  -1.0195239356526589e+47  2.2351033435753937e+47  5.4596081949924621e+46  1.0649480584855695e+45  7.0879311727804739e+44  5.4736630731041438e+43  -4.2822838436685760e+43  -3.1802140112372699e+42  5.6609114792406755e+40  -3.4824616506447875e+40  -2.3634816616561671e+39  1.6051431558558790e+38  -5.6583049738742858e+37  -8.7743580132717187e+37  -1.3587951103554455e+39  9.1369761862522780e+39  -4.1154120849734041e+40  3.1280706382633428e+41  -4.0633031920506109e+41  -2.0473855310095883e+42  -2.2309416454113621e+44  5.9202467710142163e+43  2.5909651304758044e+46  -1.1363890308920502e+47  -4.1307461842056861e+47  1.1012285965952852e+49  4.3364055020055087e+49  1.9500841924416843e+50  2.1987190936574912e+50  1.4383044685077077e+52  2.2516391026499915e+52  2.1346898758923239e+54  -3.1363469639173111e+54  9.9641709788227872e+55  -9.6226886579115809e+55  -3.4457063184668003e+56  -5.4617857251541824e+56  -2.7572702072663525e+55  -1.9210065025000459e+57  3.0619496362703089e+57  2.4433247308085088e+56  -3.9191972470931691e+28  -2.7606546999704398e+44  -9.1683787509491201e+68  7.4164472089443440e+35  -1.1692628187781697e+26  8.2802604662795913e+41  -1.7705277382041946e+66  -1.5017507942178804e+35  -6.5547605032564468e+52  5.3547326413035282e+43  -1.0007525918621977e+36  -1.8466787964723492e+51  3.3315384341338580e+60  3.6260160872637935e+44  2.6557354121700094e+29  -2.7420732876848764e+42  -8.8106845316224944e+68  9.4639774751475085e+47  2.1024615491436184e+46  1.1153923108844239e+58  1.9529466859139046e+37  -2.1936032927711853e+46  3.2749663596809836e+63  1.3506047859223504e+41  5.1223909056863226e+31  -2.6177660843864493e+50  1.0141901088319721e+39  1.5444955486522010e+47  -1.6651551311293151e+40  5.2933037151890066e+47  9.7511872245246774e+55  7.9468640056185336e+34  6.0459102633775973e+66  2.9530073618501650e+48  -1.8704359411978907e+59  -1.0797199562673134e+42  -5.9325497160077724e+52  5.6458176740572265e+43  -9.8745947689557762e+36  -1.2125985305894915e+52  -4.4528127283942374e+50  2.1035009069311260e+58  1.4317667133484421e+42  2.8341342172656659e+41  1.3312897978475016e+53  -4.1689554387797713e+38  9.2663236492033432e+37  -5.9318099624848985e+44  6.5235148217529888e+29  9.7127811411847343e+67  -2.1429653466814885e+44  1.4075435253336921e+60  -8.2685473911675741e+48  -1.2901867812031321e+51  3.9464524934617219e+42  8.6375124181337864e+34  4.1132025393999912e+45  3.1881575972362177e+38  -2.4909618188900714e+53  1.7847431007350101e+40  -2.8643113014507799e+54  5.2279535327093986e+57  -1.5501189121628775e+38  3.8959575737409100e+41  1.8461029667619311e+49  2.3356862141124135e+51  -6.9695269644868193e+36  -1.2201776371097399e+45  -9.0841851154811257e+44  1.9093063087097738e+61  -3.7515737783432818e+51  -3.0082549635272506e+47  -1.6110911321436810e+42  -7.2824215416711040e+40  7.1196443646952272e+57  -1.8216645237367485e+56  -6.8472180976908559e+48  7.0560740765323184e+61  6.6269446251725431e+48  -5.4054945911020375e+56  -3.8485643272345320e+39  -4.0454733156980726e+40  5.5357058719739964e+48  7.8831568664940567e+48  -4.7043448543736113e+45  1.1105070980904268e+65  1.4587525712710070e+65  -3.0477550450325663e+52  -1.8724748756809782e+32  -1.0383367051869970e+37  -3.4760344963858953e+47  1.1086458159888862e+41  -9.9108127089666783e+33  1.5782888444816799e+40  6.3043628708265741e+46  -4.7836259907297578e+47  8.9101823931837561e+66  -4.7900565711892179e+30  -7.4778120811592239e+43  4.4894633885558418e+67  3.5204792228053826e+28  3.3165462295158823e+36  -2.2594694235158459e+53  3.4559654776223676e+62  -4.9586907716462440e+43  1.5785254828695281e+59  -2.9798961354188646e+56  3.2049460197734950e+47  -6.9132203697558017e+33  3.1243092308872637e+46  -2.6564105716358795e+40  -3.8460440176554423e+41  5.1309749345065910e+39  -9.8190506471514504e+31  9.9195558702858753e+65  1.1951627213830766e+43  -8.2059649877632828e+34  -3.0769413936353540e+53  3.6060841135268677e+63  1.2426506124598201e+37  2.7109137540196592e+44  -2.8270408562065921e+48  1.8885190128338123e+50  -1.2020725532420729e+49  -5.0054301024384472e+43  2.5661843127327024e+57  1.9157995104334491e+40  1.8642292147533367e+59  -6.6671353488828650e+50  9.1111163619183122e+50  -2.3387126607363816e+47  1.3245108514146631e+49  1.2711300469820667e+63  1.1175194050225127e+46  1.1592024024345365e+43  -4.2075723814665600e+39  4.9299484635515195e+46  -2.9536247834151534e+35  -5.8450999991420322e+50  7.0479642497654784e+54  -4.7905962100459009e+43  2.7767438381234667e+30  -1.0048506321932438e+48  -1.5008411868650740e+46  6.9848163568745342e+37  -4.4572813914269407e+53  8.0673152352235432e+36  -3.0630400151837883e+44  1.2390361811515044e+50  -1.4582042143560720e+67  2.5672279122748941e+41  7.8667078790637395e+51  5.1684329054453460e+52  5.1023533787798217e+42  1.4560913218908601e+29  -8.2705059629674787e+58  -9.5066352264904070e+57  -1.1068901647243163e+60  -3.0520240182753622e+41  7.9768516235408597e+36  3.3356467907024534e+44  1.8035936427455317e+37  6.3359149468740509e+38  -3.2523637188381626e+40  -2.6996085756437989e+41  1.5158025313090385e+54  1.2981215713801058e+53  -3.9068298585025590e+53  -1.6230651102859638e+52  -2.5075632611305907e+51  1.1055536901029162e+70  -4.2101272598873503e+36  8.0553224764107742e+67  -3.3293848356761813e+45  5.0178584776271540e+29  1.5617308228598239e+41  -7.7775797733041729e+26  -1.1374248811177096e+43  -7.5709938249105870e+42  -5.8951855622756175e+27  -1.0618347391462674e+65  -2.0006739407713506e+33  -1.4670369544669796e+67  1.1581301772396884e+36  -7.8345095324663316e+35  -3.7276225701107075e+37  1.4111715168971171e+43  5.7053170059037548e+43  -7.6894545808200351e+38  -1.0457427712529471e+52  1.6544569407762731e+66  2.1173724551990939e+45  7.3076736583401267e+35  3.5901191591383564e+61  1.2279901509270153e+59  5.5838187165600048e+51  1.5207985981338877e+68  6.2506690985744182e+54  -8.8482571394125948e+44  7.1218628151153007e+43  3.0203238317297764e+36  3.5949518487810425e+33  -8.8642103743597283e+47  -7.3905711058700723e+43  5.8639666921279406e+49  -2.3470121387220151e+52  9.4832772395431910e+53  6.4119432001448724e+57  2.2446818936690960e+57  -2.1246102593471065e+67  -1.0659740312153915e+28  -1.7776114873342534e+33  2.2867074145109145e+62  3.1349014244922313e+45  2.7236492091605022e+36  7.7829510846080147e+47  -1.4054200419637206e+45  -7.7240548950196513e+58  -1.4028852093174979e+48  1.1850930145767735e+52  -5.3516269261348681e+41  3.4957196811431350e+56  1.0242710686270499e+50  -8.3333308509822857e+26  -1.0105067901535284e+42  -7.6391850299225686e+65  1.7552076250056357e+35  -4.2667779885542325e+48  -5.6204115397648152e+57  -4.9014273174954895e+43  -1.8176851287282914e+37  2.2317663351279495e+37  -3.6948710764039264e+44  4.1093722812718547e+43  4.9576650847678717e+47  1.5345509381710562e+30  -8.0964174468768407e+30  9.2448897194584030e+28  2.1966778465955415e+41  -4.4526723536774097e+42  -8.4284589305337860e+31  -5.1865230002364240e+51  -4.6566423263987060e+39  4.2029066663795354e+40  -9.8407339932542496e+46  -1.1998481329503065e+49  2.3069288274990132e+48  -6.2119751119808510e+39  2.2305451053710108e+56  -4.7013163057383513e+68  -6.3709719856037997e+57  6.0407372471504849e+59  -3.4674314532124516e+45  2.9221413141696881e+51  -4.8127754100234610e+51  5.4954358433159854e+39  1.2274204083845577e+40  6.1437907969012728e+55  5.3048813575032842e+54  -2.1675801719665761e+39  -1.4586490102536772e+39  -1.9852808343485510e+49  2.9489873286265958e+64  1.1321752688544991e+50  -3.4821564352039972e+46  -2.1220888324081109e+39  2.0109953134728959e+48  1.4975309367941540e+35  -1.9993861289083198e+45  8.5065315171118780e+43  -3.6287606483833673e+42  -1.7800623702107421e+38  -5.1678027487409342e+37  2.8788095696575582e+44  -1.3797594539856300e+55  2.2453100119985366e+54  -7.3768486264450614e+37  -2.3076029770598423e+42  -4.1893352485308377e+38  -4.5291291237914332e+34  -1.1146220823152238e+46  1.3104919086911764e+42  -7.7436782736002364e+53  -9.5840831510864815e+56  3.6586663913064592e+57  -9.8747108170809057e+40  -4.3086865444544514e+40  -6.5634530256226852e+33  2.1254686741726794e+59  1.3633232838153110e+60  2.2686103587462611e+60  -1.3510071404595042e+43  4.8060724275200531e+58  -8.2977332257959982e+52  4.5003864950420390e+41  1.3886174847645833e+50  6.5225239992067242e+50  4.1265418272906085e+51  -7.2758305838638204e+44  -2.2727237423567621e+44  -2.9769442572811058e+48  2.1922086633681940e+48  6.7030931398727200e+67  2.1032718761051934e+33  8.8067110503845905e+51  -3.3480740598660893e+44  2.2768691306474212e+64  -2.2834875178311439e+64  2.4937380812122508e+50  7.1691624241681842e+49  -3.7681074155189126e+47  1.1054376613914426e+42  -4.8283853953185765e+40  -5.2850653663447071e+40  -1.8940809109926198e+57  3.3052731779806031e+56  -1.8445866665854347e+49  -9.7007020725533981e+45  -7.9732752381089643e+42  9.7704147851622068e+45  2.0343983831988747e+48  -3.1401795136810149e+58  2.4748490243544580e+46  9.3315735002251756e+38  -4.7357710681560617e+46  -2.2402882993590633e+64  -1.5439483848803712e+40  -9.0997878595740179e+25  3.9270258337569539e+33  4.3609296506802483e+43  6.3328593702386090e+47  7.0496627814008102e+39  -1.5857758426780701e+50  1.9171323444336774e+58  -7.7396989659987835e+49  6.5233674075884550e+40  -7.6113061279383142e+39  -9.5688183146264112e+37  1.1583321938693177e+48  1.2273128201814758e+64  6.7912443040582260e+64  8.2304886612509046e+65  1.2842210099303873e+64  -1.6975780242940368e+55  -3.3265566040874126e+39  1.8653521019041235e+42  1.2186989220324945e+50  8.2781195091386498e+49  5.7549429686117628e+50  7.8539322902690537e+55  9.8308863670101968e+58  1.5110194348569045e+41  1.0839019169193945e+42  7.2255651980120490e+33  -1.1059134736735533e+39  2.6043884928596548e+49  7.6444385140579326e+32  4.8339744475840782e+43  3.8543169593819161e+47  8.6810284567618081e+53  1.0469350299173396e+30  2.8987105850817825e+41  3.1251753058403616e+61  9.4205034694215847e+60  1.0035948887674347e+67  7.4783499006880413e+45  -8.0574496912936246e+35  5.2767950097346857e+45  1.0443958716834660e+42  1.7347484936945766e+41  2.3789357923672861e+40  -6.3662373608408046e+39  3.9305716218901750e+55  -1.0370869314490675e+29  -2.4865940051985246e+65  1.7463494450584792e+38  2.0913518678313571e+49  2.3384006769012411e+37  -2.0856613078966507e+45  3.0959749587968124e+60  6.5346647539249033e+50  -8.5804760981657501e+39  -1.0671103948046472e+55  8.1379105137714121e+33  3.1222828988000365e+51  1.9405326539646623e+68  2.1643672733089512e+39  2.5122733139990892e+48  -9.5209874334301701e+37  2.4461606205801794e+47  6.3523028017900042e+40  7.0191617709908390e+40  -1.6886814869424073e+34  -5.1268375124096250e+25  -1.1490277452090799e+65  1.2633977416762088e+44  4.0775296051756870e+52  1.8439052812247774e+65  -4.1608436146631943e+48  -1.0658810898721405e+40  -3.7858824858602609e+47  3.2537152276372954e+48  8.2724827345411738e+55  7.6113939043124454e+30  1.5403827178856446e+41  -9.4308190636428502e+38  1.6358672530952808e+45  1.2233132947676947e+49  -7.3389587724895078e+47  1.7198380516801720e+48  7.1097855714513149e+37  4.2721385754249330e+47  5.6707659467993817e+37  -1.1672359134392400e+54  6.7799189173839276e+44  -1.7470789371655082e+37  -1.4804500340169388e+43  2.0958881252700785e+62  -1.1564303619196829e+36  1.0627537960417428e+50  7.1235398368176814e+62  1.5324678373477914e+61  1.3576178943011696e+61  -1.6115831238584965e+50  -3.8959682114411018e+50  2.9149781628241958e+67  -3.6212569072235521e+42  -3.3334509366945245e+35  1.3485559227829312e+46  -1.6238922101030853e+52  -1.0380690412057478e+58  1.8390103483117215e+44  4.6535380013055851e+39  5.5623053633720078e+68  -1.7213574944455062e+38  -7.1813974614258234e+44  -5.0686832328901036e+39  -2.2758703444755789e+49  3.0874466263132983e+38  -9.4779936712537128e+41  2.5430922495056913e+34  2.9384553872653154e+45  6.6765940171282213e+38  -5.4050321375402672e+38  -2.1792597600008728e+47  -7.2885151695411755e+45  4.8024222270599829e+46  -9.1781834770601530e+66  7.7501249593897960e+29  8.4702222750761960e+45  5.8573139136520755e+36  -5.0512860029691790e+52  -2.2631330226223435e+45  -2.9447519279623333e+46  7.6758056710680417e+47  -1.7138667439042637e+44  -1.0535237025346864e+37  -6.7854508079284193e+37  1.4149053628167181e+50  4.1565280221821195e+36  -1.2047626399771727e+42  -4.3715267812890157e+63  8.9603161592095816e+42  3.5224406057968916e+50  4.8637092580813813e+32  1.8929238392673750e+49  8.1523674893927555e+34  6.0794509779739178e+33  -2.2163544736989085e+66  -4.9195310589191851e+66  -1.0298422146866812e+30  1.8572121088227710e+31  2.4081415899612100e+41  -9.7794439738301139e+49  3.4563140941124851e+54  1.5132703150189371e+53  -4.3027532618242478e+51  4.7013605954110258e+52  1.6435452887843912e+49  -3.3547075358170950e+69  7.6090893734410598e+53  -1.7383205061327752e+49  1.9761231259482676e+38  -6.7219526305835142e+39  -3.0848824759944558e+52  -6.2434513802782200e+55  -4.9640629094161623e+52  -1.9779543978602509e+50  -5.3242231592405197e+59  -8.5306618030971192e+37  1.0307521461726079e+41  7.8825639328917643e+37  1.3967181639274846e+42  5.5676974394703707e+43  -2.4562214723392434e+36  8.9565277247786795e+67  -1.7042548902291732e+28  -7.5251045045647885e+28  -4.4072242599906394e+29  1.1310734904763641e+67  -3.9810223512318692e+66  1.0955166091342126e+63  1.1784438351375640e+44  1.0038985899988712e+62  -1.0452342376734573e+42  -1.7937997478722529e+60  -2.4985014299451322e+44  3.0119164782213041e+43  1.7371315102572548e+37  -5.1833698349124685e+35  2.2199592173114653e+36  1.6235717946573257e+52  1.1353272372645580e+29  -2.1888434379210746e+36  -4.3780499715632111e+42  3.7465706624081663e+66  -1.0569144801895077e+44  6.2881373793387335e+49  -1.1895442468838591e+47  1.2186525684296692e+36  2.1012306355381483e+44  -2.5917181517466820e+46  4.5082038047440913e+36  -7.4436049629246974e+56  6.6986865757436653e+61  2.2112575692471957e+61  1.6217345068856380e+63  -3.8687011330999212e+36  -2.6964904065333233e+52  -1.1487763612992082e+32  6.4976349451169036e+62  -6.1188856286301037e+39  -9.8106249709285594e+45  6.9785569876491319e+42  2.5111274978577421e+44  5.2126811549822906e+68  3.8406834870916955e+51  -6.7882786096955412e+30  1.3589985463062913e+61  1.5737579677764511e+40  -2.4944557491278779e+57  -2.3325852167773408e+40  7.2821324953467072e+45  1.2787441613152402e+57  -3.4358995924015560e+52  8.3154200685640437e+54  2.5374785022222464e+53  -5.5692774112517348e+34  -1.0896798454874236e+40  1.1794626862355419e+47  4.6882376079504573e+52  1.4850069740292133e+51  1.7260133800620891e+51  -1.8283477316721835e+51  7.6055842566186361e+52  -7.7496949957769922e+41  -4.4450669799780140e+40  -4.0141103041158691e+47  -1.4533449250194399e+47  -8.9083871517710977e+36  1.5716923871352898e+48  -1.2694663114958732e+37  -1.6028777681858048e+44  -5.7873003492681866e+41  -2.0339913195815820e+42  -1.6497721332191563e+42  -4.0925868611629568e+45  5.4842967111709011e+49  2.8701716526127627e+58  -7.7869162943675135e+57  4.4058081713499078e+59  1.1768219134449593e+51  4.1825989743804671e+66  -2.9680851887988068e+45  -4.9989886421818282e+49  -2.2712771393640752e+32  -8.0128010026808159e+30  7.4101725629889852e+33  5.9480993934821969e+47  -8.3534802291367691e+46  9.2732326684990456e+46  -2.2507291861727132e+53  9.3196385915657787e+55  -5.5398389168288750e+34  3.0531688830960776e+40  -1.1916988720093990e+66  -2.2946275856449880e+44  1.4398780676485869e+43  -6.1186094715248506e+48  -1.0330984038902587e+36  2.6739980343129712e+56  3.8377566202853990e+41  -4.8134829869039165e+57  -3.4239354307043896e+40  -5.9357876104289317e+49 