<?xml version="1.0"?>
<VTKFile type="UnstructuredGrid"  version="0.1"  >
<UnstructuredGrid>
<Piece  NumberOfPoints="2331" NumberOfCells="4248">
<Points>
<DataArray  type="Float64"  NumberOfComponents="3"  format="ascii">0 0.3 0  0 0 0  0.04999999999999999 0 0  0.0514582251803892 0.02410733605106462 0  0.0558116365147896 0.04786313285751154 0  0.06299675146291706 0.07092097740850717 0  0.07290879486935808 0.09294463440875382 0  0.08540322682126872 0.1136129493462312 0  0.1002978503657798 0.132624531648159 0  0.117375468351841 0.1497021496342203 0  0.1363870506537689 0.1645967731787313 0  0.1570553655912463 0.177091205130642 0  0.1790790225914929 0.187003248537083 0  0.2021368671424885 0.1941883634852104 0  0.2258926639489354 0.1985417748196108 0  0.25 0.2 0  0.2741073360510646 0.1985417748196108 0  0.2978631328575116 0.1941883634852104 0  0.3209209774085071 0.187003248537083 0  0.3429446344087537 0.177091205130642 0  0.3636129493462312 0.1645967731787313 0  0.3826245316481591 0.1497021496342202 0  0.3997021496342202 0.132624531648159 0  0.4145967731787313 0.1136129493462312 0  0.427091205130642 0.09294463440875371 0  0.4370032485370829 0.07092097740850713 0  0.4441883634852104 0.04786313285751155 0  0.4485417748196108 0.02410733605106461 0  0.45 0 0  0.55 0 0  0.5514582251803892 0.02410733605106462 0  0.5558116365147896 0.04786313285751154 0  0.5629967514629171 0.07092097740850717 0  0.5729087948693581 0.09294463440875382 0  0.5854032268212688 0.1136129493462312 0  0.6002978503657798 0.132624531648159 0  0.617375468351841 0.1497021496342203 0  0.6363870506537689 0.1645967731787313 0  0.6570553655912463 0.177091205130642 0  0.6790790225914929 0.187003248537083 0  0.7021368671424885 0.1941883634852104 0  0.7258926639489354 0.1985417748196108 0  0.75 0.2 0  0.7741073360510646 0.1985417748196108 0  0.7978631328575116 0.1941883634852104 0  0.8209209774085071 0.187003248537083 0  0.8429446344087537 0.177091205130642 0  0.8636129493462312 0.1645967731787313 0  0.8826245316481591 0.1497021496342202 0  0.8997021496342202 0.132624531648159 0  0.9145967731787312 0.1136129493462312 0  0.927091205130642 0.09294463440875371 0  0.9370032485370829 0.07092097740850713 0  0.9441883634852104 0.04786313285751155 0  0.9485417748196108 0.02410733605106461 0  0.95 0 0  1 0 0  1 0.3 0  0.9758926639489353 0.3014582251803892 0  0.9521368671424885 0.3058116365147896 0  0.9290790225914928 0.3129967514629171 0  0.9070553655912461 0.3229087948693581 0  0.8863870506537688 0.3354032268212687 0  0.867375468351841 0.3502978503657798 0  0.8502978503657798 0.367375468351841 0  0.8354032268212687 0.3863870506537689 0  0.822908794869358 0.4070553655912464 0  0.8129967514629171 0.4290790225914929 0  0.8058116365147896 0.4521368671424885 0  0.8014582251803892 0.4758926639489354 0  0.8 0.4999999999999999 0  0.8014582251803892 0.5241073360510646 0  0.8058116365147896 0.5478631328575115 0  0.8129967514629171 0.5709209774085071 0  0.8229087948693581 0.5929446344087538 0  0.8354032268212688 0.6136129493462312 0  0.8502978503657798 0.632624531648159 0  0.867375468351841 0.6497021496342202 0  0.8863870506537689 0.6645967731787313 0  0.9070553655912463 0.677091205130642 0  0.9290790225914929 0.6870032485370829 0  0.9521368671424885 0.6941883634852104 0  0.9758926639489354 0.6985417748196108 0  1 0.7 0  1 1 0  0.95 1 0  0.9485417748196108 0.9758926639489353 0  0.9441883634852104 0.9521368671424885 0  0.9370032485370829 0.9290790225914928 0  0.927091205130642 0.9070553655912463 0  0.9145967731787312 0.8863870506537688 0  0.8997021496342201 0.8673754683518409 0  0.882624531648159 0.8502978503657798 0  0.863612949346231 0.8354032268212686 0  0.8429446344087537 0.822908794869358 0  0.8209209774085071 0.8129967514629171 0  0.7978631328575114 0.8058116365147896 0  0.7741073360510646 0.8014582251803892 0  0.75 0.8 0  0.7258926639489353 0.8014582251803892 0  0.7021368671424885 0.8058116365147896 0  0.6790790225914928 0.8129967514629171 0  0.6570553655912461 0.8229087948693581 0  0.6363870506537688 0.8354032268212688 0  0.617375468351841 0.8502978503657798 0  0.6002978503657798 0.867375468351841 0  0.5854032268212687 0.8863870506537689 0  0.572908794869358 0.9070553655912463 0  0.5629967514629171 0.9290790225914929 0  0.5558116365147896 0.9521368671424885 0  0.5514582251803892 0.9758926639489355 0  0.55 0.9999999999999999 0  0.45 0.9999999999999999 0  0.4485417748196108 0.9758926639489353 0  0.4441883634852104 0.9521368671424885 0  0.4370032485370829 0.9290790225914928 0  0.427091205130642 0.9070553655912463 0  0.4145967731787313 0.8863870506537688 0  0.3997021496342201 0.8673754683518409 0  0.382624531648159 0.8502978503657798 0  0.363612949346231 0.8354032268212686 0  0.3429446344087536 0.822908794869358 0  0.3209209774085071 0.8129967514629171 0  0.2978631328575115 0.8058116365147896 0  0.2741073360510646 0.8014582251803892 0  0.25 0.8 0  0.2258926639489353 0.8014582251803892 0  0.2021368671424885 0.8058116365147896 0  0.1790790225914928 0.8129967514629171 0  0.1570553655912462 0.8229087948693581 0  0.1363870506537688 0.8354032268212688 0  0.117375468351841 0.8502978503657798 0  0.1002978503657797 0.867375468351841 0  0.08540322682126869 0.8863870506537689 0  0.07290879486935797 0.9070553655912463 0  0.06299675146291703 0.9290790225914929 0  0.05581163651478957 0.9521368671424885 0  0.0514582251803892 0.9758926639489355 0  0.04999999999999999 0.9999999999999999 0  0 1 0  -0 0.7000000000000001 0  0.0241073360510646 0.6985417748196108 0  0.04786313285751161 0.6941883634852104 0  0.07092097740850711 0.6870032485370829 0  0.09294463440875372 0.677091205130642 0  0.1136129493462312 0.6645967731787312 0  0.1326245316481591 0.6497021496342202 0  0.1497021496342202 0.632624531648159 0  0.1645967731787313 0.6136129493462312 0  0.177091205130642 0.5929446344087537 0  0.187003248537083 0.5709209774085071 0  0.1941883634852104 0.5478631328575115 0  0.1985417748196108 0.5241073360510646 0  0.2 0.5 0  0.1985417748196108 0.4758926639489353 0  0.1941883634852104 0.4521368671424885 0  0.1870032485370829 0.4290790225914928 0  0.177091205130642 0.4070553655912463 0  0.1645967731787313 0.3863870506537688 0  0.1497021496342202 0.3673754683518409 0  0.132624531648159 0.3502978503657798 0  0.113612949346231 0.3354032268212686 0  0.09294463440875361 0.322908794869358 0  0.07092097740850711 0.3129967514629171 0  0.04786313285751148 0.3058116365147896 0  0.02410733605106464 0.3014582251803892 0  0.6985417748196108 0.5241073360510646 0  0.7 0.5 0  0.6985417748196108 0.4758926639489353 0  0.6941883634852104 0.4521368671424885 0  0.6870032485370829 0.4290790225914928 0  0.677091205130642 0.4070553655912463 0  0.6645967731787312 0.3863870506537688 0  0.6497021496342201 0.3673754683518409 0  0.632624531648159 0.3502978503657798 0  0.613612949346231 0.3354032268212686 0  0.5929446344087537 0.322908794869358 0  0.5709209774085071 0.3129967514629171 0  0.5478631328575114 0.3058116365147896 0  0.5241073360510646 0.3014582251803892 0  0.4999999999999999 0.3 0  0.4758926639489353 0.3014582251803892 0  0.4521368671424885 0.3058116365147896 0  0.4290790225914928 0.3129967514629171 0  0.4070553655912462 0.3229087948693581 0  0.3863870506537688 0.3354032268212687 0  0.367375468351841 0.3502978503657798 0  0.3502978503657798 0.367375468351841 0  0.3354032268212687 0.3863870506537689 0  0.322908794869358 0.4070553655912464 0  0.3129967514629171 0.4290790225914929 0  0.3058116365147896 0.4521368671424885 0  0.3014582251803892 0.4758926639489354 0  0.3 0.4999999999999999 0  0.3014582251803892 0.5241073360510646 0  0.3058116365147896 0.5478631328575115 0  0.3129967514629171 0.5709209774085071 0  0.3229087948693581 0.5929446344087538 0  0.3354032268212687 0.6136129493462312 0  0.3502978503657798 0.632624531648159 0  0.367375468351841 0.6497021496342202 0  0.3863870506537689 0.6645967731787313 0  0.4070553655912463 0.677091205130642 0  0.4290790225914929 0.6870032485370829 0  0.4521368671424885 0.6941883634852104 0  0.4758926639489354 0.6985417748196108 0  0.4999999999999999 0.7 0  0.5241073360510646 0.6985417748196108 0  0.5478631328575116 0.6941883634852104 0  0.5709209774085071 0.6870032485370829 0  0.5929446344087537 0.677091205130642 0  0.6136129493462312 0.6645967731787312 0  0.6326245316481591 0.6497021496342202 0  0.6497021496342202 0.632624531648159 0  0.6645967731787312 0.6136129493462312 0  0.677091205130642 0.5929446344087537 0  0.6870032485370829 0.5709209774085071 0  0.6941883634852104 0.5478631328575115 0  0 0.15 0  1 0.15 0  1 0.85 0  0 0.8500000000000001 0  0 0.075 0  1 0.075 0  1 0.925 0  0 0.925 0  0.5 0.8127595604293815 0  0.5069440078039168 0.190422209288238 0  0.25 0.3127595604293815 0  0.756944007803917 0.3095777907117619 0  0.756944007803917 0.6904222092882382 0  0.25 0.6872404395706185 0  0 0.225 0  0.4255768646051012 0.2241073097134061 0  1 0.7749999999999999 0  0.6773391559270888 0.2766774022734219 0  1 0.225 0  0.6755768646051011 0.7241073097134062 0  0 0.7750000000000001 0  0.5818971135297744 0.2287925518358889 0  0.8318971135297746 0.728792551835889 0  0.1659156081861886 0.7301636995921477 0  0.08376842746533225 0.2299656297760495 0  0.4236002201977974 0.7746535834185855 0  0.0840843918138115 0.7698363004078523 0  0.3340843918138113 0.7301636995921477 0  0.3340843918138114 0.2698363004078523 0  0.9159156081861887 0.2301636995921477 0  0.5840843918138116 0.7698363004078522 0  0.1659156081861887 0.2698363004078523 0  0.9162315725346678 0.7700343702239506 0  0.8340843918138114 0.2698363004078523 0  0.75 0.6146645247768686 0  0.5 0.1125158665330878 0  0.75 0.3874841334669124 0  0.2504983345544904 0.6122915843562002 0  0.2504983345544902 0.3877084156437999 0  0.5 0.8879783056303169 0  0.7005361650220154 0.3333055947145943 0  0.70416808765371 0.6599554817221275 0  0.449930214263529 0.1678187287522426 0  0.2247310981387008 0.7415600637745463 0  0.5155081196221678 0.7563797802146907 0  0.2752689018612993 0.2584399362254537 0  0.05605196690611226 0.8246131191226815 0  0.9439480330938878 0.1
[...]
<PointData  Scalars="Temperature"> 
<DataArray  type="Float64"  Name="Temperature"  format="ascii">3.5262155353575572e+01  3.7503886694494547e+01  3.7495398261049822e+01  3.7452051886666737e+01  3.7329213556695954e+01  3.7133927274362271e+01  3.6866113421142813e+01  3.6524224078607737e+01  3.6112160996285375e+01  3.5625544989400311e+01  3.5053030421055212e+01  3.4401618814016750e+01  3.3688798982578191e+01  3.2928141346766424e+01  3.2133463561889855e+01  3.1329567030687247e+01  3.0528221740064119e+01  2.9738199715779377e+01  2.8985917598667484e+01  2.8266698519519469e+01  2.7609432936303424e+01  2.7024265700027708e+01  2.6515399492813685e+01  2.6107932880394969e+01  2.5794097964190062e+01  2.5577656828876940e+01  2.5434766776622105e+01  2.5360842501405788e+01  2.5337540885251247e+01  2.4968240412460112e+01  2.4938963899762605e+01  2.4848379453083936e+01  2.4685053402434949e+01  2.4450662922442927e+01  2.4138127743441263e+01  2.3765468069772293e+01  2.3358278541052339e+01  2.2930919424508616e+01  2.2507730208501620e+01  2.2108813203997830e+01  2.1747492519508995e+01  2.1431920141056736e+01  2.1163987259417041e+01  2.0940317575143393e+01  2.0756115123592824e+01  2.0608872515449786e+01  2.0491124278794061e+01  2.0399866597955143e+01  2.0331153462549768e+01  2.0280263937439734e+01  2.0243754496892254e+01  2.0217961447910035e+01  2.0200487779776257e+01  2.0188937502568791e+01  2.0182153920024138e+01  2.0179852153924067e+01  2.0177778172099881e+01  2.0259268512086564e+01  2.0270644884296466e+01  2.0303121405441797e+01  2.0354079015865459e+01  2.0418829957142105e+01  2.0492008661440725e+01  2.0565252478634680e+01  2.0632790201173510e+01  2.0685805892809242e+01  2.0720876490879807e+01  2.0731347633448120e+01  2.0722038667740719e+01  2.0695230468982729e+01  2.0656873402633906e+01  2.0613270229677866e+01  2.0564796593495320e+01  2.0512324302099785e+01  2.0457505753449272e+01  2.0399411906916178e+01  2.0340268674257128e+01  2.0284218892286244e+01  2.0231652485529413e+01  2.0186361732511084e+01  2.0149333906887048e+01  2.0122152472591456e+01  2.0105514787398015e+01  2.0099626634865746e+01  2.0036578373181957e+01  2.0036937258093275e+01  2.0038276159889225e+01  2.0042074168333063e+01  2.0048269262596470e+01  2.0057233540028765e+01  2.0069849512640083e+01  2.0087103459177101e+01  2.0110193259406831e+01  2.0140576457567430e+01  2.0179911007387791e+01  2.0229270592301869e+01  2.0288325942200174e+01  2.0357814403500136e+01  2.0435460756283749e+01  2.0522301697335347e+01  2.0614592164509823e+01  2.0710801915822362e+01  2.0804058046592228e+01  2.0890708292937912e+01  2.0961621917613119e+01  2.1013944785649493e+01  2.1039237019039959e+01  2.1042729276680706e+01  2.1025750334691484e+01  2.0997802017518701e+01  2.0974250242522182e+01  2.0964731044303864e+01  2.1033995482097822e+01  2.1061541823636205e+01  2.1135891413263625e+01  2.1254643914526408e+01  2.1419169613299569e+01  2.1633327796749679e+01  2.1893027198851708e+01  2.2198647623829661e+01  2.2539198115891352e+01  2.2912073789090968e+01  2.3296100697245791e+01  2.3673614791549660e+01  2.4026151605710925e+01  2.4329502734484581e+01  2.4571604621889577e+01  2.4736487320786072e+01  2.4823761266331804e+01  2.4831782996612667e+01  2.4762749577934887e+01  2.4633052223239645e+01  2.4449865177610143e+01  2.4227095228483105e+01  2.3987592218968132e+01  2.3754953733273670e+01  2.3553356296337682e+01  2.3415806231992043e+01  2.3359929297323951e+01  2.3360411651485080e+01  2.5559149202296091e+01  2.5567044648665526e+01  2.5593353058434609e+01  2.5635456529535080e+01  2.5693862360972837e+01  2.5770952610462569e+01  2.5874887315917665e+01  2.6018852304301976e+01  2.6212668924473967e+01  2.6461722174949934e+01  2.6783751287665464e+01  2.7172857077081726e+01  2.7626755502690362e+01  2.8126858067847824e+01  2.8663564110003030e+01  2.9228916872182438e+01  2.9825878124219241e+01  3.0463045257623776e+01  3.1147199186379805e+01  3.1860826719873135e+01  3.2584961031771549e+01  3.3284271277210436e+01  3.3930126955299237e+01  3.4485031006298698e+01  3.4903089714071093e+01  3.5169620909137876e+01  2.0687882394475508e+01  2.0731820756165465e+01  2.0792470546775128e+01  2.0872644894557194e+01  2.0977640678503665e+01  2.1116370374703902e+01  2.1298668278113045e+01  2.1531951830544994e+01  2.1827167612534968e+01  2.2180576337327164e+01  2.2598319043786073e+01  2.3081756906736643e+01  2.3622683700391999e+01  2.4216647594344479e+01  2.4851888303656640e+01  2.5517867590158282e+01  2.6191817944738062e+01  2.6860006847074466e+01  2.7483507820272084e+01  2.8048880914089807e+01  2.8506215088078591e+01  2.8842702151052212e+01  2.9026103844344739e+01  2.9060781990274339e+01  2.8931744399762621e+01  2.8670863632461160e+01  2.8294549237906029e+01  2.7838328058072232e+01  2.7336533273425182e+01  2.6811120760678648e+01  2.6281896255638959e+01  2.5740431312719966e+01  2.5207334828519048e+01  2.4681470201798003e+01  2.4168157879785557e+01  2.3680158549809057e+01  2.3216263759315286e+01  2.2794682574702946e+01  2.2413005878090882e+01  2.2079524928907663e+01  2.1788705535538245e+01  2.1540834709715519e+01  2.1330239175776992e+01  2.1156834629721736e+01  2.1011866174463300e+01  2.0893519243829786e+01  2.0800042590572694e+01  2.0729695754042002e+01  2.0681458094108226e+01  2.0654822836308281e+01  2.0647926421991983e+01  2.0659739191332672e+01  3.6536179177237287e+01  2.0219329590976045e+01  2.0064267172728606e+01  2.4401510511024124e+01  3.7222091659424947e+01  2.0190804124092470e+01  2.0044838416980010e+01  2.3700562483008579e+01  2.1500711564774100e+01  2.4851126615678602e+01  3.0676522474293566e+01  2.1001894756345219e+01  2.0463674128645707e+01  2.5109012435469314e+01  3.5739681068383994e+01  2.6604762758548187e+01  2.0086065516818991e+01  2.1762417204105493e+01  2.0244398606094496e+01  2.0701035474833006e+01  2.5144107840887685e+01  2.3334965243804355e+01  2.0265618291347288e+01  2.5277848981707599e+01  3.5109566252162850e+01  2.2333530070323128e+01  2.5162923772628062e+01  2.3729848924799729e+01  2.8914127573042791e+01  2.0335127138077727e+01  2.1093660467769805e+01  3.3095314202367099e+01  2.0124889061173473e+01  2.0611961168550796e+01  2.0542400980406782e+01  2.5088998525515017e+01  2.0905699398128924e+01  2.6067203881529522e+01  2.9810088101987901e+01  2.1230356479371039e+01  2.1336613270952288e+01  2.0621225799129370e+01  2.5953233755785178e+01  2.4817849026410435e+01  2.1561263841448842e+01  3.0447212305569241e+01  2.4678776883420269e+01  2.0261594236119993e+01  3.6043164646001557e+01  2.0083977388377924e+01  2.5251145322247716e+01  2.0507580232614728e+01  2.1254226574478523e+01  2.1819451284848022e+01  2.5640761039898990e+01  3.1803698911033827e+01  2.4617367230400905e+01  2.9374697060360567e+01  2.1149480989442370e+01  2.5134869934666504e+01  2.0796549862780186e+01  2.0621892603626506e+01  2.8977192557211218e+01  2.7147027096988129e+01  2.0996857195527117e+01  2.1067392799286313e+01  3.1819465508849234e+01  2.4345262906473820e+01  2.3937475999765649e+01  2.0418528177539635e+01  2.0707087344873063e+01  2.2420995538824933e+01  2.7543976258893085e+01  2.8157765496441115e+01  2.0832982697924599e+01  2.0971037064987041e+01  2.2374827850747675e+01  2.0370691661524457e+01  2.0865106788306260e+01  2.0703373359571945e+01  2.5151091453952112e+01  2.8086801147089208e+01  2.2955194150855903e+01  2.3122978656542223e+01  2.4233637851061054e+01  2.0184860507150052e+01  2.0183876771298593e+01  2.1874045080607811e+01  3.4326620299217488e+01  2.5374409406723981e+01  2.0397545849650214e+01  2.5056453955180302e+01  3.4017788196317191e+01  2.5462948288454200e+01  2.0274978480407992e+01  2.0475885302887349e+01  2.0106954652038958e+01  3.5253270789510452e+01  2.0225703972202332e+01  2.0062107269213183e+01  3.6681958158691806e+01  2.4242135178093012e+01  2.0774475223574274e+01  2.0353415930943147e+01  2.4457084216428719e+01  2.0578357967017677e+01  2.0987684669663306e+01  2.3930221741910113e+01  3.2918682547161644e+01  2.0337144139647332e+01  2.8546805687415009e+01  2.5656280860690487e+01  2.4822902974797305e+01  3.5415304921712647e+01  2.0120891919250653e+01  2.6041500022241092e+01  3.0783890765319981e+01  2.1250451739576491e+01  2.0275333616259715e+01  2.9866312096036982e+01  2.5342950251234452e+01  2.1694731060362194e+01  2.1837751767208875e+01  2.2350009186175360e+01  2.6198818925650457e+01  2.0798286788480201e+01  2.7094744784705870e+01  2.0664690280868950e+01  2.1489454154858720e+01  2.2283500621666793e+01  2.3322936910711547e+01  2.1333305180753246e+01  2.0282923874270274e+01  2.2998276361406393e+01  2.4908627796656326e+01  2.9273435223285563e+01  2.3757325783781759e+01  3.2877859351705297e+01  2.0555113783795978e+01  2.1204512418570065e+01  2.5632801016634797e+01  3.5699227817723802e+01  2.0651178068592809e+01  2.0269236996318782e+01  2.5044672213079952e+01  2.1342645354288596e+01  2.4782496067407664e+01  2.0232914113747761e+01  2.0781431863313440e+01  2.0081817523568770e+01  2.5685412267769578e+01  2.1038659464616988e+01  2.1126871044721437e+01  2.5233160644095605e+01  3.6135772060594995e+01  2.0543951201796204e+01  2.0616864831786998e+01  2.0497806811743807e+01  2.6685121777711213e+01  2.9995829945190749e+01  2.5492693703499480e+01  2.9297443669732051e+01  2.5495227597060282e+01  2.5387177896699786e+01  2.4850769782133508e+01  2.0782552957734119e+01  2.0948523076663530e+01  2.1098891233000721e+01  2.1078032818546031e+01  2.1265151777570455e+01  2.0075434439623582e+01  2.5433181455336896e+01  2.0053830647551976e+01  2.0252966285377902e+01  3.5410281695642489e+01  2.0181180975083446e+01  3.7430548374514863e+01  2.0204449631530668e+01  2.0203174175669119e+01  3.6910709248237744e+01  2.0038754478162428e+01  2.3456165330584991e+01  2.0095256607574466e+01  2.4030599879734275e+01  2.3887798426039673e+01  2.9170396611782245e+01  2.6433284124308251e+01  2.5207474569079729e+01  2.9697160969695592e+01  2.1517769034769540e+01  2.0139564018440840e+01  2.4273915493104031e+01  3.1664933662622374e+01  2.0411422585124992e+01  2.0468927821025638e+01  2.1893040183662404e+01  2.0092354645026717e+01  2.1303090045146604e+01  2.4525105277283405e+01  2.5615018611058755e+01  3.0562680448451797e+01  3.3974822498861094e+01  2.2849459955355137e+01  2.4518127486914256e+01  2.1001799233508088e+01  2.0878518690931436e+01  2.1443715119275737e+01  2.0681935589406113e+01  2.0724038228543336e+01  2.0050632956874832e+01  3.7038930365015602e+01  3.4766599096996011e+01  2.0342567278946685e+01  2.4645919653430823e+01  3.1543058816017449e+01  2.0481226047087510e+01  2.3891203865378554e+01  2.0592486097384114e+01  2.0325259270974758e+01  2.1365264262476764e+01  2.7357951664290805e+01  2.0826597712264860e+01  2.2640799652337293e+01  3.7325651769008644e+01  2.0190025026204442e+01  2.0042015065869972e+01  2.3575956463753258e+01  2.2725461968954878e+01  2.0630410550729756e+01  2.5921387992103394e+01  2.4440879521998063e+01  2.4596729784935267e+01  2.0259973895140512e+01  2.0233172451351393e+01  2.3275551457514478e+01  3.5952239612875189e+01  3.5596264816963291e+01  3.6290712764063002e+01  2.6542848143343541e+01  2.6250486774741457e+01  3.4785794072313195e+01  2.1755036863782447e+01  2.5653150541995792e+01  2.4879283074872195e+01  2.0421768995288861e+01  2.1567896640887305e+01  2.1032429012021339e+01  2.7831308958226600e+01  2.0925707833653508e+01  2.0071294431916058e+01  2.0668251286262485e+01  2.0545124683492709e+01  2.3456676686471145e+01  2.1003115536400209e+01  2.0615481546021616e+01  2.5256088083295875e+01  2.5038858792472507e+01  2.0722388576901803e+01  2.0812060080394641e+01  2.8444532735029011e+01  2.8895633342940560e+01  2.1501655793926471e+01  2.0218016479130142e+01  2.1076494438395361e+01  2.2313774842114327e+01  2.9648353911423026e+01  2.3461186424344728e+01  3.2328885578407537e+01  2.4214138773867884e+01  2.4561656440469974e+01  2.5124916315675264e+01  3.0181596897909323e+01  3.0950928510877180e+01  2.4851172504737104e+01  2.1116957018556235e+01  2.1069794059561399e+01  2.9988382837280444e+01  2.5461965556332000e+01  2.9109728262631975e+01  3.2163141566293731e+01  2.4453917840845616e+01  2.5964227205248410e+01  2.1303821778298911e+01  2.0679890691882054e+01  2.0647670282823182e+01  2.7635236616738432e+01  2.7682061156565883e+01  3.3673641704820760e+01  2.0607833533397436e+01  2.0552352961852339e+01  2.0492073222782757e+01  2.6888058076035307e+01  2.0746916688471732e+01  2.1554869742665986e+01  2.6891123023676627e+01  2.1749263575840789e+01  2.2032655004417542e+01  2.1180766680014440e+01  2.5196948735119509e+01  2.5052733975564877e+01  2.1404766649769311e+01  2.1999051132679107e+01  2.0101070941249532e+01  3.4735837592655024e+01  2.0686148819383817e+01  2.3993809824697557e+01  2.0202198812047968e+01  2.0156037709107249e+01  2.0834248172351305e+01  2.0654330264474424e+01  2.0536983246422984e+01  2.4918482153077061e+01  2.7845296814338038e+01  2.8298016223696873e+01  2.0871748561767198e+01  2.0952351966183073e+01  2.2854812592923057e+01  2.3450915367431882e+01  2.4846952140737024e+01  2.2872330772796939e+01  2.0406103435601359e+01  2.0582036943040599e+01  2.0301420298171905e+01  2.4905568851733911e+01  2.3912053191189713e+01  2.0036748577690208e+01  2.0178758176725207e+01  3.7500319952279987e+01  2.3359591742684053e+01  2.5378516666197172e+01  2.2811834910358790e+01  2.8316198662114317e+01  2.2058004346826312e+01  2.0750922954395314e+01  2.0477604665481053e+01  2.4928250495942034e+01  2.5344159780722137e+01  2.9437184447199279e+01  2.0802177445297684e+01  2.0230794542276769e+01  2.0202118657459422e+01  2.0158477891044317e+01  2.0233607361642214e+01  2.1085384873550538e+01  2.8677839584870686e+01  2.6414897341466151e+01  2.1014376734696466e+01  2.0973249928158992e+01  2.1145291582463731e+01  2.0941802717835415e+01  2.0580078592782900e+01  2.7221369520814306e+01  2.6908558641175574e+01  3.3452170950849379e+01  2.9067422809315310e+01  2.2695007568350903e+01  3.4573109622156899e+01  2.5429098353175970e+01  2.3365551416686213e+01  2.0855581328844501e+01  3.5560725710172939e+01  2.6124300052783482e+01  2.0407039612363679e+01  2.0433441913984776e+01  2.0096334947397548e+01  2.5057472373365403e+01  3.2538556659187833e+01  2.4030999090205579e+01  2.5099525446307009e+01  2.5269576781870914e+01  2.5188331419188380e+01  2.8352786753632909e+01  2.0747969806618702e+01  3.6338290614246311e+01  2.0143960303819878e+01  2.9413220321812073e+01  2.2188724287849304e+01  2.4967816824719115e+01  2.0244003851505607e+01  2.0482250545247062e+01  2.1643742751989578e+01  2.8772756926241524e+01  2.1012937299470824e+01  3.1464229492174173e+01  2.0750161634131409e+01  2.0093198107078322e+01  2.5593976752206260e+01  2.2104310440521381e+01  2.8804003687414450e+01  2.0374742185151291e+01  2.5115868020109822e+01  2.0182666942910785e+01  2.3427608986591263e+01  3.7449134336665885e+01  2.0038276835933523e+01  2.4544850147648766e+01  2.0902806901280417e+01  2.0172433036788753e+01  2.0557643704414065e+01  2.5472976905809215e+01  2.1931912797034602e+01  2.0326624001056260e+01  2.1069816342983803e+01  3.5016426265031193e+01  2.5787754204080251e+01  2.5351823209750044e+01  2.4948360060553803e+01  2.0731416074268683e+01  2.3056023176661093e+01  2.3543602657798889e+01  2.5527291188953601e+01  2.0282614244474058e+01  2.5200884868930554e+01  2.0752738389890037e+01  2.4392942470131683e+01  3.0896718831605089e+01  2.6022367738186993e+01  2.0336843293628366e+01  3.1191947052599268e+01  2.1673415031740920e+01  2.0307232874119705e+01  2.0434228030466894e+01  2.0422503348626744e+01  2.1178124555236071e+01  2.1171306594446538e+01  2.0108204444732728e+01  2.4754428764625796e+01  3.2405164910967940e+01  2.3887832088143060e+01  2.1378320298205811e+01  2.0644023095386590e+01  2.5925113671896089e+01  2.4989261456497829e+01  2.0081662946224043e+01  3.0284399972400735e+01  2.4936298205017046e+01  2.5026286754096702e+01  2.1022063000206835e+01  2.5279189744046935e+01  2.4481209377589916e+01  3.3299710499942769e+01  2.0303809644051974e+01  2.4657011339975806e+01  2.5328620856604104e+01  2.0295583919696771e+01  2.0249354746083164e+01  2.0255274026697688e+01  2.0100828237930557e+01  3.6005536969013399e+01  2.2695303925384263e+01  3.0565262937019696e+01  2.1138469671760731e+01  2.4727843579595575e+01  2.3753460929663678e+01  2.2459772934170246e+01  2.5805689615198425e+01  2.9453803808253809e+01  3.1218617729892571e+01  2.0460542891749785e+01  2.4060363112823833e+01  2.0227216855698678e+01  2.0257303136246190e+01  2.5749146993807436e+01  2.2156101952960242e+01  3.4249318642449431e+01  2.0381250520604425e+01  3.3602513644818330e+01  3.4131564483489797e+01  2.0119816694447582e+01  2.0101740087505497e+01  3.5271514501501258e+01  3.5379469069888245e+01  2.7748197721963507e+01  2.2081178859193866e+01  2.0909002966553807e+01  2.0822070833781495e+01  2.2151412670233086e+01  2.1726003820107131e+01  2.1060883965497155e+01  2.0074056364636142e+01  2.1146068964187883e+01  2.2628986234383394e+01  2.9449771772610003e+01  2.8591388392635618e+01  2.0744527355579521e+01  2.0753178906293623e+01  2.1052841058902267e+01  2.2014514079632036e+01  2.0556170301030161e+01  2.9147829086218923e+01  2.5641682267114490e+01  2.4832680435710046e+01  2.6236024631253144e+01  2.5955491970695437e+01  3.0321965621413650e+01  2.0058886286654332e+01  3.6729011699168062e+01  3.6558049834118897e+01  3.6567944395298554e+01  2.0070464604403785e+01  2.0057097355757339e+01  2.0256623700479469e+01  2.4717583714152756e+01  2.0344852958075609e+01  2.6721937670906364e+01  2.0490264065647029e+01  2.0242591876312186e+01  2.0222519229697490e+01  2.4471187225155187e+01  2.4213882376097018e+01  2.4354198074915352e+01  2.1024499288046822e+01  3.6860189031479059e+01  2.4077394305610383e+01  2.0209934093710768e+01  2.0137906297138972e+01  2.4234426545797106e+01  2.1410332356450066e+01  2.3665651264026994e+01  3.0070961704281672e+01  2.5708193414381409e+01  2.0256901029074751e+01  2.5524202628434352e+01  2.0662691482886839e+01  2.0382609799372236e+01  2.0405325432727203e+01  2.0296419090043607e+01  3.2154552716080758e+01  2.1397777008718105e+01  3.5245310079375876e+01  2.0325674368735541e+01  2.4770710465217451e+01  2.0366896234178075e+01  2.6334005112874113e+01  2.4248608586105064e+01  2.0062797970160236e+01  2.1623171793835219e+01  3.5065760133884666e+01  2.0472697206227444e+01  2.0178444963214531e+01  2.0846431436968913e+01  2.8700786350955841e+01  2.4087065531829449e+01  2.0680376359560970e+01  2.1684308293873997e+01  2.1233424609760853e+01  2.1031090225379401e+01  3.2406367862344609e+01  2.8050551908400010e+01  2.3502663063135678e+01  2.1188785774985735e+01  2.0546945429355645e+01  2.0915986493131857e+01  2.1236326001631738e+01  2.1278731664911760e+01  2.4820469969977580e+01  2.5750487113493428e+01  2.3829685817131079e+01  2.0261429567295952e+01  2.5485417810876061e+01  2.0368027998444237e+01  3.0322682153864001e+01  2.5304794606948100e+01  2.5400454898799360e+01  2.5301407981535959e+01  2.5852422144714204e+01  2.0673066879505072e+01  2.2512552054778929e+01  2.0617943717968974e+01  2.0624664696523386e+01  2.0548769397424916e+01  2.1542372354926631e+01  2.0112267367763806e+01  2.0293918807311272e+01  2.1898231966922172e+01  3.5264424041441011e+01  3.5762886656701070e+01  3.3473320516106185e+01  2.1644720203447047e+01  2.4232864989458783e+01  2.3886503203346592e+01  2.0722009069628349e+01  2.0940858468356129e+01  3.2726705677811402e+01  2.8349318209479090e+01  2.0123532500110120e+01  2.5711852406913192e+01  2.6398084668526355e+01  2.0534903467946894e+01  3.2045840609854118e+01  2.0854437854084264e+01  2.6745307791515867e+01  2.0758235409285476e+01  2.7000273586167303e+01  2.2277520623591297e+01  2.2447240874895634e+01  2.1062498892185733e+01  2.9327880239122667e+01  2.1229894131581354e+01  2.0662573624916217e+01  2.1091218015153629e+01  2.0993578201030228e+01  2.8969570254625893e+01  2.1311657944811525e+01  2.1736248091523432e+01  2.7539372335040717e+01  2.1918071249339174e+01  2.0665414341746221e+01  2.6361815954273318e+01  2.0055585358063269e+01  3.6801832701399732e+01  2.589