<?xml version="1.0"?>
<VTKFile type="UnstructuredGrid"  version="0.1"  >
<UnstructuredGrid>
<Piece  NumberOfPoints="2331" NumberOfCells="4248">
<Points>
<DataArray  type="Float64"  NumberOfComponents="3"  format="ascii">0 0.3 0  0 0 0  0.04999999999999999 0 0  0.0514582251803892 0.02410733605106462 0  0.0558116365147896 0.04786313285751154 0  0.06299675146291706 0.07092097740850717 0  0.07290879486935808 0.09294463440875382 0  0.08540322682126872 0.1136129493462312 0  0.1002978503657798 0.132624531648159 0  0.117375468351841 0.1497021496342203 0  0.1363870506537689 0.1645967731787313 0  0.1570553655912463 0.177091205130642 0  0.1790790225914929 0.187003248537083 0  0.2021368671424885 0.1941883634852104 0  0.2258926639489354 0.1985417748196108 0  0.25 0.2 0  0.2741073360510646 0.1985417748196108 0  0.2978631328575116 0.1941883634852104 0  0.3209209774085071 0.187003248537083 0  0.3429446344087537 0.177091205130642 0  0.3636129493462312 0.1645967731787313 0  0.3826245316481591 0.1497021496342202 0  0.3997021496342202 0.132624531648159 0  0.4145967731787313 0.1136129493462312 0  0.427091205130642 0.09294463440875371 0  0.4370032485370829 0.07092097740850713 0  0.4441883634852104 0.04786313285751155 0  0.4485417748196108 0.02410733605106461 0  0.45 0 0  0.55 0 0  0.5514582251803892 0.02410733605106462 0  0.5558116365147896 0.04786313285751154 0  0.5629967514629171 0.07092097740850717 0  0.5729087948693581 0.09294463440875382 0  0.5854032268212688 0.1136129493462312 0  0.6002978503657798 0.132624531648159 0  0.617375468351841 0.1497021496342203 0  0.6363870506537689 0.1645967731787313 0  0.6570553655912463 0.177091205130642 0  0.6790790225914929 0.187003248537083 0  0.7021368671424885 0.1941883634852104 0  0.7258926639489354 0.1985417748196108 0  0.75 0.2 0  0.7741073360510646 0.1985417748196108 0  0.7978631328575116 0.1941883634852104 0  0.8209209774085071 0.187003248537083 0  0.8429446344087537 0.177091205130642 0  0.8636129493462312 0.1645967731787313 0  0.8826245316481591 0.1497021496342202 0  0.8997021496342202 0.132624531648159 0  0.9145967731787312 0.1136129493462312 0  0.927091205130642 0.09294463440875371 0  0.9370032485370829 0.07092097740850713 0  0.9441883634852104 0.04786313285751155 0  0.9485417748196108 0.02410733605106461 0  0.95 0 0  1 0 0  1 0.3 0  0.9758926639489353 0.3014582251803892 0  0.9521368671424885 0.3058116365147896 0  0.9290790225914928 0.3129967514629171 0  0.9070553655912461 0.3229087948693581 0  0.8863870506537688 0.3354032268212687 0  0.867375468351841 0.3502978503657798 0  0.8502978503657798 0.367375468351841 0  0.8354032268212687 0.3863870506537689 0  0.822908794869358 0.4070553655912464 0  0.8129967514629171 0.4290790225914929 0  0.8058116365147896 0.4521368671424885 0  0.8014582251803892 0.4758926639489354 0  0.8 0.4999999999999999 0  0.8014582251803892 0.5241073360510646 0  0.8058116365147896 0.5478631328575115 0  0.8129967514629171 0.5709209774085071 0  0.8229087948693581 0.5929446344087538 0  0.8354032268212688 0.6136129493462312 0  0.8502978503657798 0.632624531648159 0  0.867375468351841 0.6497021496342202 0  0.8863870506537689 0.6645967731787313 0  0.9070553655912463 0.677091205130642 0  0.9290790225914929 0.6870032485370829 0  0.9521368671424885 0.6941883634852104 0  0.9758926639489354 0.6985417748196108 0  1 0.7 0  1 1 0  0.95 1 0  0.9485417748196108 0.9758926639489353 0  0.9441883634852104 0.9521368671424885 0  0.9370032485370829 0.9290790225914928 0  0.927091205130642 0.9070553655912463 0  0.9145967731787312 0.8863870506537688 0  0.8997021496342201 0.8673754683518409 0  0.882624531648159 0.8502978503657798 0  0.863612949346231 0.8354032268212686 0  0.8429446344087537 0.822908794869358 0  0.8209209774085071 0.8129967514629171 0  0.7978631328575114 0.8058116365147896 0  0.7741073360510646 0.8014582251803892 0  0.75 0.8 0  0.7258926639489353 0.8014582251803892 0  0.7021368671424885 0.8058116365147896 0  0.6790790225914928 0.8129967514629171 0  0.6570553655912461 0.8229087948693581 0  0.6363870506537688 0.8354032268212688 0  0.617375468351841 0.8502978503657798 0  0.6002978503657798 0.867375468351841 0  0.5854032268212687 0.8863870506537689 0  0.572908794869358 0.9070553655912463 0  0.5629967514629171 0.9290790225914929 0  0.5558116365147896 0.9521368671424885 0  0.5514582251803892 0.9758926639489355 0  0.55 0.9999999999999999 0  0.45 0.9999999999999999 0  0.4485417748196108 0.9758926639489353 0  0.4441883634852104 0.9521368671424885 0  0.4370032485370829 0.9290790225914928 0  0.427091205130642 0.9070553655912463 0  0.4145967731787313 0.8863870506537688 0  0.3997021496342201 0.8673754683518409 0  0.382624531648159 0.8502978503657798 0  0.363612949346231 0.8354032268212686 0  0.3429446344087536 0.822908794869358 0  0.3209209774085071 0.8129967514629171 0  0.2978631328575115 0.8058116365147896 0  0.2741073360510646 0.8014582251803892 0  0.25 0.8 0  0.2258926639489353 0.8014582251803892 0  0.2021368671424885 0.8058116365147896 0  0.1790790225914928 0.8129967514629171 0  0.1570553655912462 0.8229087948693581 0  0.1363870506537688 0.8354032268212688 0  0.117375468351841 0.8502978503657798 0  0.1002978503657797 0.867375468351841 0  0.08540322682126869 0.8863870506537689 0  0.07290879486935797 0.9070553655912463 0  0.06299675146291703 0.9290790225914929 0  0.05581163651478957 0.9521368671424885 0  0.0514582251803892 0.9758926639489355 0  0.04999999999999999 0.9999999999999999 0  0 1 0  -0 0.7000000000000001 0  0.0241073360510646 0.6985417748196108 0  0.04786313285751161 0.6941883634852104 0  0.07092097740850711 0.6870032485370829 0  0.09294463440875372 0.677091205130642 0  0.1136129493462312 0.6645967731787312 0  0.1326245316481591 0.6497021496342202 0  0.1497021496342202 0.632624531648159 0  0.1645967731787313 0.6136129493462312 0  0.177091205130642 0.5929446344087537 0  0.187003248537083 0.5709209774085071 0  0.1941883634852104 0.5478631328575115 0  0.1985417748196108 0.5241073360510646 0  0.2 0.5 0  0.1985417748196108 0.4758926639489353 0  0.1941883634852104 0.4521368671424885 0  0.1870032485370829 0.4290790225914928 0  0.177091205130642 0.4070553655912463 0  0.1645967731787313 0.3863870506537688 0  0.1497021496342202 0.3673754683518409 0  0.132624531648159 0.3502978503657798 0  0.113612949346231 0.3354032268212686 0  0.09294463440875361 0.322908794869358 0  0.07092097740850711 0.3129967514629171 0  0.04786313285751148 0.3058116365147896 0  0.02410733605106464 0.3014582251803892 0  0.6985417748196108 0.5241073360510646 0  0.7 0.5 0  0.6985417748196108 0.4758926639489353 0  0.6941883634852104 0.4521368671424885 0  0.6870032485370829 0.4290790225914928 0  0.677091205130642 0.4070553655912463 0  0.6645967731787312 0.3863870506537688 0  0.6497021496342201 0.3673754683518409 0  0.632624531648159 0.3502978503657798 0  0.613612949346231 0.3354032268212686 0  0.5929446344087537 0.322908794869358 0  0.5709209774085071 0.3129967514629171 0  0.5478631328575114 0.3058116365147896 0  0.5241073360510646 0.3014582251803892 0  0.4999999999999999 0.3 0  0.4758926639489353 0.3014582251803892 0  0.4521368671424885 0.3058116365147896 0  0.4290790225914928 0.3129967514629171 0  0.4070553655912462 0.3229087948693581 0  0.3863870506537688 0.3354032268212687 0  0.367375468351841 0.3502978503657798 0  0.3502978503657798 0.367375468351841 0  0.3354032268212687 0.3863870506537689 0  0.322908794869358 0.4070553655912464 0  0.3129967514629171 0.4290790225914929 0  0.3058116365147896 0.4521368671424885 0  0.3014582251803892 0.4758926639489354 0  0.3 0.4999999999999999 0  0.3014582251803892 0.5241073360510646 0  0.3058116365147896 0.5478631328575115 0  0.3129967514629171 0.5709209774085071 0  0.3229087948693581 0.5929446344087538 0  0.3354032268212687 0.6136129493462312 0  0.3502978503657798 0.632624531648159 0  0.367375468351841 0.6497021496342202 0  0.3863870506537689 0.6645967731787313 0  0.4070553655912463 0.677091205130642 0  0.4290790225914929 0.6870032485370829 0  0.4521368671424885 0.6941883634852104 0  0.4758926639489354 0.6985417748196108 0  0.4999999999999999 0.7 0  0.5241073360510646 0.6985417748196108 0  0.5478631328575116 0.6941883634852104 0  0.5709209774085071 0.6870032485370829 0  0.5929446344087537 0.677091205130642 0  0.6136129493462312 0.6645967731787312 0  0.6326245316481591 0.6497021496342202 0  0.6497021496342202 0.632624531648159 0  0.6645967731787312 0.6136129493462312 0  0.677091205130642 0.5929446344087537 0  0.6870032485370829 0.5709209774085071 0  0.6941883634852104 0.5478631328575115 0  0 0.15 0  1 0.15 0  1 0.85 0  0 0.8500000000000001 0  0 0.075 0  1 0.075 0  1 0.925 0  0 0.925 0  0.5 0.8127595604293815 0  0.5069440078039168 0.190422209288238 0  0.25 0.3127595604293815 0  0.756944007803917 0.3095777907117619 0  0.756944007803917 0.6904222092882382 0  0.25 0.6872404395706185 0  0 0.225 0  0.4255768646051012 0.2241073097134061 0  1 0.7749999999999999 0  0.6773391559270888 0.2766774022734219 0  1 0.225 0  0.6755768646051011 0.7241073097134062 0  0 0.7750000000000001 0  0.5818971135297744 0.2287925518358889 0  0.8318971135297746 0.728792551835889 0  0.1659156081861886 0.7301636995921477 0  0.08376842746533225 0.2299656297760495 0  0.4236002201977974 0.7746535834185855 0  0.0840843918138115 0.7698363004078523 0  0.3340843918138113 0.7301636995921477 0  0.3340843918138114 0.2698363004078523 0  0.9159156081861887 0.2301636995921477 0  0.5840843918138116 0.7698363004078522 0  0.1659156081861887 0.2698363004078523 0  0.9162315725346678 0.7700343702239506 0  0.8340843918138114 0.2698363004078523 0  0.75 0.6146645247768686 0  0.5 0.1125158665330878 0  0.75 0.3874841334669124 0  0.2504983345544904 0.6122915843562002 0  0.2504983345544902 0.3877084156437999 0  0.5 0.8879783056303169 0  0.7005361650220154 0.3333055947145943 0  0.70416808765371 0.6599554817221275 0  0.449930214263529 0.1678187287522426 0  0.2247310981387008 0.7415600637745463 0  0.5155081196221678 0.7563797802146907 0  0.2752689018612993 0.2584399362254537 0  0.05605196690611226 0.8246131191226815 0  0.9439480330938878 0.1
[...]
<PointData  Scalars="Temperature"> 
<DataArray  type="Float64"  Name="Temperature"  format="ascii">2.7345868767696878e+01  2.8464934734700215e+01  2.8458216036026062e+01  2.8439275502117880e+01  2.8384938243376862e+01  2.8296917333538570e+01  2.8173833970821160e+01  2.8013242663274756e+01  2.7817251979540980e+01  2.7584469149773046e+01  2.7310651951340272e+01  2.6999651218923468e+01  2.6659699605626166e+01  2.6298069326219139e+01  2.5899691131495825e+01  2.5468315360227919e+01  2.5189556741827388e+01  2.3782207014082211e+01  2.5802737768763155e+01  2.7311663142293220e+01  -4.6648450458460978e+01  -1.6904791156425600e+02  -9.1583433976539226e+01  -3.3123462937170831e+02  2.1590886209781016e+02  6.9703814253423701e+01  4.5734932263163955e+01  1.6731536956217482e+01  2.7356022661703136e+01  1.3789987411185837e+02  -1.8941848035038751e+02  4.0851362731337474e+02  -7.2861721603794176e+03  4.2967936260491973e+04  4.7374396472286526e+05  -3.1909194417571754e+05  -1.2619119717480073e+07  -1.8601455762868997e+07  -7.6760101054857001e+07  1.9623425044410405e+08  -2.8844007641857171e+09  2.3624380906863413e+09  -6.0349437238446467e+07  -9.1002515026255205e+07  -6.1340882750224590e+08  1.9418282328181654e+07  1.9784403144968605e+08  -4.1022876285684621e+06  1.1335809454938713e+07  -5.1414267799841845e+05  7.4777806067986682e+05  -2.3742714815959436e+05  1.3348068755078119e+04  5.0657831445500169e+03  4.7073947927173350e+02  -9.9061418034079338e+01  2.4642145118389973e+01  -1.0860045294189150e+09  -3.1722822584173961e+09  -2.2724367404793659e+10  -1.5188332069824490e+11  -8.2280503970097949e+11  -7.2251560655224531e+12  -1.5968333641944582e+13  8.0084022251237207e+12  -1.4646288400080048e+15  7.7645739988351430e+15  -2.1547009825021988e+16  4.4521608284357619e+17  -1.7836878200516982e+18  -1.5469099394673908e+19  1.0540744854500742e+20  -3.4031082387232902e+20  2.3136855153598857e+21  -1.9735853280342596e+22  1.7748005850513762e+22  -6.0371788108630514e+23  -1.2993965183315182e+25  -2.3998487205810882e+25  -3.8319827974095122e+26  5.6950653103690366e+25  6.9248952496119039e+27  -1.3355132953572343e+28  -4.8286242351245505e+28  -3.3027666125915948e+25  1.7491348582232125e+26  -2.5345385585379305e+26  -2.4127115634275287e+26  -4.1231110641883685e+27  4.7960091739017071e+27  -2.3105242981227412e+28  1.4229070859487166e+28  -1.1128580822744107e+26  -1.8061899628970634e+27  -5.8941699955509281e+26  9.7013112016437907e+25  9.1418490108964720e+24  1.2855761019758390e+23  8.1952672422595412e+22  4.0792550258667369e+21  1.9859477480832372e+20  -1.4674143474987493e+20  5.5825503608571505e+18  2.5211143065146312e+18  -7.6731695657269952e+17  4.5107872424906400e+16  -2.1033783524627228e+16  1.6948587573694500e+15  -7.1858373915926950e+14  -2.1267750356409633e+13  6.6446135171065039e+12  3.9632862624318286e+12  8.7440368015854950e+10  -2.4443237232188644e+10  4.0133650735825537e+11  -5.1634244727383704e+11  -6.6292190415677209e+11  -2.6437387964939890e+11  3.3237955080014838e+11  2.3462415155326208e+11  -1.9533678294083172e+10  -6.2889910301999168e+09  1.1273756113784347e+09  -2.8351323540686470e+08  4.6266296007944338e+07  6.7021452248893650e+06  -1.4846879061858272e+06  2.3918155507273783e+05  3.0657654970157669e+03  -1.0264156334315035e+03  -8.6167831377374384e+01  2.2326196094768328e+01  2.0907539429903579e+01  2.2015743280228566e+01  2.1802135796387233e+01  2.1669062341057511e+01  2.1552010514048696e+01  2.1469906646314900e+01  2.1435633613387747e+01  2.1436631270345881e+01  2.2826981965487793e+01  2.2760951380617595e+01  2.2330857656954070e+01  2.4403627673069600e+01  4.5012840032700645e+01  8.4317317939918269e+01  -4.9079033798888241e+02  -8.9262460620238812e+02  4.6871353090136915e+02  -2.0885848138310707e+03  -3.3112871632288602e+02  7.9611958140254629e+01  -1.8064076831473479e+01  3.8922770105907695e+01  3.0268311864700184e+01  2.3399862045696835e+01  2.4983148962917646e+01  2.4968444775853676e+01  2.5404242474502066e+01  2.5734785807437611e+01  2.6083012892926348e+01  2.6417790269986863e+01  2.6723441057954247e+01  2.6983704885991184e+01  2.7178978360008813e+01  2.7303123320433773e+01  4.3693741140240104e+16  -8.0705941337245363e+17  -2.0148836966834140e+16  -7.3788735810149456e+16  -1.3163615063562465e+15  6.3457958154204300e+14  -1.0003763241712870e+14  6.5405859972452246e+11  2.3271754260284204e+12  7.3371105963890396e+10  3.1070688019004795e+10  4.1083905608491892e+08  -9.0068280488668740e+08  -2.2000659901976764e+08  -4.2914143675653264e+06  -2.8562113375923531e+06  -2.2055013909254892e+05  1.7258697693417329e+05  1.2838807439525848e+04  -2.0440526885167114e+02  1.6425674608870747e+02  3.3604373003010423e+01  2.3521895121342190e+01  2.4423471993908265e+01  2.4502123343846076e+01  2.9519939594443159e+01  -1.2933720648200453e+01  1.8952724592390257e+02  -1.2370591722302381e+03  1.6606167348888582e+03  8.2733504168852996e+03  8.9902849077313603e+05  -2.3854658985956648e+05  -1.0440847434642810e+08  4.5793235305692691e+08  1.6645727850295713e+09  -4.4376367983882217e+10  -1.7474475957949490e+11  -7.8582824701883643e+11  -8.8602101271207349e+11  -5.7959563160274188e+13  -9.0734626528419578e+13  -8.6021906625788270e+15  1.2638582715130636e+16  -4.0152763884983174e+17  3.8776687638240186e+17  1.3885212579796367e+18  2.2009436919397146e+18  1.1111011627035310e+17  7.7411076827502008e+18  -1.2338782728053637e+19  -9.8459010005953357e+17  2.8027237995325457e+01  1.1124851045905771e+06  3.6945948436389653e+30  2.2047307233328347e+01  2.8342738499122682e+01  -3.3166271552127232e+03  7.1347212301976639e+27  2.1641247171685418e+01  2.6413813188198125e+14  -2.1575816980490569e+05  2.5124055442575138e+01  7.4415882509397793e+12  -1.3425148605321072e+22  -1.4611585046787381e+06  2.7619202208142607e+01  1.1072920941949251e+04  3.5504542868162240e+30  -3.8137126682049012e+09  -8.4723176991664827e+07  -4.4947125248305570e+19  2.2435059011777614e+01  8.8395970608168706e+07  -1.3197179298810991e+25  -5.2170419210436046e+02  2.7321160540693100e+01  1.0548849845911116e+12  1.8413572119862188e+01  -6.2238758299904358e+08  9.1349713025366100e+01  -2.1330502326072185e+09  -3.9294500170335507e+17  2.6349645720336479e+01  -2.4363292018085972e+28  -1.1899776449153355e+10  7.5373227605713171e+20  4.3733822452541726e+03  2.3906481381047850e+14  -2.2748740129908905e+05  2.4694401544126695e+01  4.8864258340747852e+13  1.7943563843827009e+12  -8.4765080233330213e+19  -5.7467278436692213e+03  -1.1198043898505264e+03  -5.3647177501335019e+14  2.6729784742647421e+01  2.1830025318148380e+01  2.3903701460208707e+06  2.7785984154781790e+01  -3.9139734620911205e+29  8.6357628369351674e+05  -5.6719984984880002e+21  3.3319885013990795e+10  5.1990843295930488e+12  -1.5880308761171265e+04  2.5700838188251090e+01  -1.6575009580983944e+07  2.3124703552860545e+01  1.0037864863316611e+15  -4.9468407662832412e+01  1.1542356672188524e+16  -2.1067159952061026e+19  2.4880460396635851e+01  -1.5465273493735992e+03  -7.4392678195663544e+10  -9.4121485132867949e+12  2.5757855204362595e+01  4.9169894976719813e+06  3.6606889942593700e+06  -7.6939592426373410e+22  1.5117771106022428e+13  1.2122408739561517e+09  6.5157863768724956e+03  3.1740298720265878e+02  -2.8690133853406941e+19  7.3407878743459366e+17  2.7592333806784515e+10  -2.8433963743908553e+23  -2.6704694567758842e+10  2.1782599722482557e+18  3.7971193770869547e+01  1.8687371709033761e+02  -2.2307313982632572e+10  -3.1766871201587402e+10  1.8957188430561349e+07  -4.4750265121896612e+26  -5.8783563314342986e+26  1.2281582578477370e+14  2.6927244838212165e+01  2.2704123002984264e+01  1.4007426678511474e+09  -4.2434764133202259e+02  2.6808759385151156e+01  -4.0908477699535922e+01  -2.5404780217530891e+08  1.9276647032758100e+09  -3.5905490839731686e+28  2.7366469012023501e+01  3.0135456963752123e+05  -1.8091255538878409e+29  2.8093326176793518e+01  2.1935070246222399e+01  9.1050166100714000e+14  -1.3926554061802995e+24  1.9984312368237716e+05  -6.3610069653358746e+20  1.2008130549098993e+18  -1.2915017104170024e+09  2.6249716778657515e+01  -1.2590072073945282e+08  1.3103484523815524e+02  1.5726480416060863e+03  1.5931684464479505e+00  2.7482079120862821e+01  -3.9972977736934139e+27  -4.8138673828085324e+04  2.5184942885536778e+01  1.2399195229503195e+15  -1.4531489299769116e+25  2.4616466009723489e+01  -1.0923982857186105e+06  1.1392167440766607e+10  -7.6101923756330420e+11  4.8440091530479607e+10  2.0172742872619283e+05  -1.0340990034544507e+19  -5.3741271650315518e+01  -7.5123114252624003e+20  2.6866651728873345e+12  -3.6715197359031660e+12  9.4243444441258645e+08  -5.3374005296035934e+10  -5.1222911321026326e+24  -4.5032819739914522e+07  -4.6690237819306778e+04  4.1452734603341895e+01  -1.9866282442304155e+08  2.6262102721115170e+01  2.3554083992586074e+12  -2.8401283457710192e+16  1.9307001633254375e+05  2.7607084413409062e+01  4.0492611439491959e+09  6.0479634448522896e+07  2.2157838508132162e+01  1.7961571279665198e+15  2.2249991067350550e+01  1.2343377541633195e+06  -4.9929620166533105e+11  5.8761466096444148e+28  -1.0117426776339180e+03  -3.1700586500503617e+13  -2.0827308819646791e+14  -2.0538535926418885e+04  2.7828480622897988e+01  3.3327777478544720e+20  3.8309025447396614e+19  4.4604513034998681e+21  1.2531357808524128e+03  2.4757910801510015e+01  -1.3441478086907030e+06  2.4262102553375666e+01  2.0179904663685292e+01  1.5368147261139208e+02  1.1101269446361327e+03  -6.1082513803975430e+15  -5.2310592682929544e+14  1.5743408777374360e+15  6.5404889460243398e+13  1.0104763935206525e+13  -4.4550656923912808e+31  2.2726184830779879e+01  -3.2460649471004259e+29  1.3416490309339818e+07  2.7433972147330238e+01  -6.0925433181640312e+02  2.8433503347591778e+01  4.5855059799793133e+04  3.0529030202706141e+04  2.8202921305754192e+01  4.2788908035026516e+26  2.1495746559368694e+01  5.9117400301993566e+28  2.1827838380777653e+01  2.1749264178512675e+01  2.4449564035049285e+01  -5.6843111005307088e+04  -2.2988548043520827e+05  2.7726800458570295e+01  4.2140447677794688e+13  -6.6669890593055395e+27  -8.5323844257101379e+06  2.5672011402505778e+01  -1.4467155092200923e+23  -4.9484496691246806e+20  -2.2501195029560250e+13  -6.1283841031296683e+29  -2.5188411657290868e+16  3.5656170508367661e+06  -2.8696801700039592e+05  2.5041961488267795e+01  2.6774092457413296e+01  3.5720236943512712e+09  2.9784100095082534e+05  -2.3630111375896204e+11  9.4577887554924938e+13  -3.8214899429616005e+15  -2.5838300236570038e+19  -9.0454270872056504e+18  8.5615726860255116e+28  2.8258594009167460e+01  2.7165766775088080e+01  -9.2147779362719196e+23  -1.2632735413387449e+07  2.5562602480700992e+01  -3.1363070332710886e+09  5.6634632362200944e+06  3.1125735707820425e+20  5.6532268351999674e+09  -4.7755864584376562e+13  2.1800936587379720e+03  -1.4086752150615135e+18  -4.1275199369917987e+11  2.8386340520780756e+01  4.0921362078011575e+03  3.0783734385137789e+27  2.1565496266668621e+01  1.7193896983494125e+10  2.2648653658417426e+19  1.9753631049095286e+05  2.2125892865748650e+01  2.2074936361338228e+01  1.4889476518946153e+06  -1.6557587608077147e+05  -1.9977974469726381e+09  2.7742115759877098e+01  2.7564567614831400e+01  2.7907109850635248e+01  -8.6198589319072528e+02  1.7966004180803458e+04  2.7135221269120034e+01  2.0900206736249629e+13  4.1583645088375924e+01  -1.4707839314959514e+02  3.9655350097403860e+08  4.8350453743938751e+10  -9.2962644361609325e+09  4.8859029765889268e+01  -8.9884598669691328e+17  1.8944962302848364e+30  2.5673197940850160e+19  -2.4342446239788727e+21  1.3972780205957472e+07  -1.1775395110699787e+13  1.9394110667213562e+13  4.0085258951856917e-01  -2.7086856473805160e+01  -2.4757722619474288e+17  -2.1377157120084300e+16  3.2715191126394835e+01  3.0137015807437550e+01  8.0001148893361237e+10  -1.1883576883396719e+26  -4.5623430530558600e+11  1.4032098243846515e+08  3.3197599158863504e+01  -8.1037368740386953e+09  2.5968091915710204e+01  8.0569771679831743e+06  -3.4276681340141862e+05  1.4645322218746398e+04  2.5668340893283268e+01  2.5492389864462822e+01  -1.1600557569324549e+06  5.5600366243919840e+16  -9.0479582247210040e+15  2.5044169933203499e+01  9.3216480234351438e+03  2.5921276617752213e+01  2.5879538782138258e+01  4.4916109323985577e+07  -5.2579477628552604e+03  3.1204812320260040e+15  3.8621118469113882e+18  -1.4743380864928500e+19  4.2154036646373470e+02  1.9732862972003483e+02  2.6608970529603084e+01  -8.5650318526616345e+20  -5.4938035517736060e+21  -9.1418519689560326e+21  5.4464931794005584e+04  -1.9367099561667677e+20  3.3437495573299606e+14  -1.7902793759698370e+03  -5.5957319589096826e+11  -2.6283909281446265e+12  -1.6628785275227969e+13  2.9319743656084863e+06  9.1586513114605949e+05  1.1996235343695234e+10  -8.8339749313613739e+09  -2.7011551359003111e+29  2.7157387279258675e+01  -3.5488530873337086e+13  1.3492000411755007e+06  -9.1751324615160348e+25  9.2018026720585808e+25  -1.0049052407539857e+12  -2.8889677491717053e+11  1.5184397145147183e+09  -4.4322911140891902e+03  2.1821768570760358e+02  2.3688124566509740e+02  7.6326052372824494e+18  -1.3319307122779108e+18  7.4331575669931824e+10  3.9091080970581114e+07  3.2152294194854294e+04  -3.9371960467130236e+07  -8.1980445639919128e+09  1.2654026796335805e+20  -9.9729328898482591e+07  1.8577714505379394e+01  1.9083807335706010e+08  9.0277221566788709e+25  8.2295217456629089e+01  2.8462113915290679e+01  2.1435829640438843e+01  -1.7571045759506704e+05  -2.5519614770784497e+09  -4.4374459870081804e+00  6.3902238453130530e+11  -7.7254959319660560e+19  3.1188776848892853e+11  -2.4057145273169789e+02  5.3276379843850322e+01  2.4860608207052042e+01  -4.6677479718985090e+09  -4.9457202196245086e+25  -2.7366775380073132e+26  -3.3166519179128231e+27  -5.1750439748035671e+25  6.8407547131299704e+16  3.7634106599747547e+01  -7.4936787604941665e+03  -4.9110086694839270e+11  -3.3358457893609833e+11  -2.3190776902492559e+12  -3.1649104525610438e+17  -3.9615664957336643e+20  -5.8539154378655462e+02  -4.3445300139756309e+03  2.6513980229494333e+01  2.8739465523800718e+01  -1.0494941969547070e+11  2.7059661404245173e+01  -1.9477273913198468e+05  -1.5531796572860241e+09  -3.4982065908342740e+15  2.7525467730503109e+01  -1.1450813560123324e+03  -1.2593564123024863e+23  -3.7961939060387247e+22  -4.0442008362260817e+28  -3.0135592347654570e+07  2.6087399699906495e+01  -2.1263955284050211e+07  -4.1861855297374113e+03  -6.7650227457221820e+02  -7.3359737567724110e+01  4.9664256202575281e+01  -1.5839081304626227e+17  2.7928829185259215e+01  1.0020263821320638e+27  2.3795754995780836e+01  -8.4275508626858002e+10  2.2303357237420947e+01  8.4046396277250238e+06  -1.2475895062278011e+22  -2.6332833056303071e+12  5.8645743570270874e+01  4.3001501894003312e+16  2.5531986857315150e+01  -1.2581908548489576e+13  -7.8197924976743436e+29  1.4070294672613405e+01  -1.0123744082397787e+10  2.4509782112318376e+01  -9.8573286250479186e+08  -2.3354149298886219e+02  -2.6277228806868243e+02  2.1477794876245820e+01  2.8439984387015489e+01  4.6302537209297893e+26  -5.0909108922339079e+05  -1.6431280015025478e+14  -7.4304117764184669e+26  1.6767011704097589e+10  6.5639173765448916e+01  1.5256025609281847e+09  -1.3111543284578447e+10  -3.3335743303541229e+17  2.7261209701021709e+01  -5.9785844253404969e+02  2.6425648237838342e+01  -6.5920555982372202e+06  -4.9296032721962013e+10  2.9573908508151121e+09  -6.9304562457406549e+09  2.2482613501643883e+01  -1.7215498395636358e+09  2.2319712928131985e+01  4.7036274397547340e+15  -2.7320917067990033e+06  2.5367093299416254e+01  5.9680764624729854e+04  -8.4458306869852568e+23  2.5392298399639603e+01  -4.2825943401566388e+11  -2.8705831493751087e+24  -6.1754078051384911e+22  -5.4708124611429850e+22  6.4942198194800012e+11  1.5699639441345774e+12  -1.1746529656157134e+29  1.4614842500249071e+04  2.6040514897915418e+01  -5.4342931249505490e+07  6.5438219221180727e+13  4.1831218268365865e+19  -7.4104582983514154e+05  3.6178635617669070e+00  -2.2414502359135416e+30  2.5621423503380182e+01  2.8939204601083747e+06  4.2786104213764979e+01  9.1711076404795792e+10  2.1323172349416009e+01  3.8414061151227766e+03  2.6470686341381011e+01  -1.1841116036111819e+07  1.9485971228740667e+01  2.4799337925739106e+01  8.7817947702444088e+08  2.9370655068626750e+07  -1.9352388286536422e+08  3.6985458682985165e+28  2.7763098371280030e+01  -3.4132556005809493e+07  2.5061938620235424e+01  2.0355240252684291e+14  9.1198020526164398e+06  1.1866511598751143e+08  -3.0931304901304178e+09  6.9066204058653186e+05  2.4482140277037008e+01  2.5712533149219304e+01  -5.7016646012508655e+11  2.1823648573527706e+01  4.8749474621005420e+03  1.7616004687096995e+25  -3.6084700122400471e+04  -1.4194429846892727e+12  2.6878367342702781e+01  -7.6279425666040344e+10  2.6601614646266508e+01  2.6868965599797676e+01  8.9312756733096918e+27  1.9824305449339187e+28  2.7361030236693455e+01  2.7442981061293580e+01  -9.4671025855155767e+02  3.9408366803727393e+11  -1.3927958886714542e+16  -6.0980472717948188e+14  1.7338867041198771e+13  -1.8945140777580731e+14  -6.6230182154343933e+10  1.3518513469421789e+31  -3.0662457483001545e+15  7.0049352834925568e+10  2.3631092385375442e+01  5.1173688033551898e+01  1.2431195523923270e+14  2.5159326313497472e+17  2.0003756091262812e+14  7.9705914404148853e+11  2.1455099058246103e+21  2.4600843849434348e+01  -3.9259040521183221e+02  2.1988909708160417e+01  -5.6052844115386943e+03  -2.2433941059204171e+05  2.4943142745445094e+01  -3.6092249292658343e+29  2.8118798811493441e+01  2.8036961765473940e+01  2.8036138088329913e+01  -4.5579032009973475e+28  1.6042383338221192e+28  -4.4146191220657342e+24  -4.7485702278100455e+05  -4.0454246654702160e+23  4.2352343849220069e+03  7.2285007840929739e+21  1.0068448350684487e+06  -1.2135154317612642e+05  2.2012766907826354e+01  2.1941375916430211e+01  2.2010732916530188e+01  -6.5425307393586734e+13  2.8173850313695624e+01  2.1866317710438892e+01  1.7662379068389393e+04  -1.5097609977368461e+28  4.2592828675034404e+05  -2.5339398128050809e+11  4.7935238703388542e+08  2.4780514426940822e+01  -8.4671319926628994e+05  1.0443886124021618e+08  2.2755259229761499e+01  2.9995602560878147e+18  -2.6993794163809049e+23  -8.9107366037344267e+22  -6.5351269942581718e+24  2.5922972461859416e+01  1.0866086385088033e+14  2.7402196136384973e+01  -2.6183613500469922e+24  4.6881689174696753e+01  3.9534037475530118e+07  -2.8098504154484330e+04  -1.0118907315355364e+06  -2.1005616630680637e+30  -1.5476857787938090e+13  2.7262980347538289e+01  -5.4763760944935862e+22  -4.3340231370901705e+01  1.0051944404521226e+19  1.1819340731352226e+02  -2.9344892732423846e+07  -5.1529738387385508e+18  1.3845694273958538e+14  -3.3508768499368888e+16  -1.0225313814816345e+15  2.6002094076168841e+01  6.7713860767144908e+01  -4.7528976268631476e+08  -1.8892258885239722e+14  -5.9841540778730664e+12  -6.9553410774510293e+12  7.3677192940296436e+12  -3.0648332863052981e+14  3.1451522155647676e+03  2.0199685390309895e+02  1.6175718558327677e+09  5.8565652620817745e+08  2.2780167836352646e+01  -6.3334715204950504e+09  2.4973965907386258e+01  6.4593651468395314e+05  2.3547320236060295e+03  8.2189469568278255e+03  6.6709628511219371e+03  1.6491976750020619e+07  -2.2100149763161700e+11  -1.1565972214012291e+20  3.1379049197809459e+19  -1.7754148900367712e+21  -4.7422562825799561e+12  -1.6854679571517482e+28  1.1960555929687727e+07  2.0144496823732474e+11  2.7404538921884956e+01  2.7649839565863271e+01  2.6548577917791238e+01  -2.3969141934032784e+09  3.3662142276963902e+08  -3.7368477603010333e+08  9.0697959492574262e+14  -3.7555482403487264e+17  2.6153144665497425e+01  -9.9171830623130774e+01  4.8022061776631019e+27  9.2469205498874246e+05  -5.7999961401578665e+04  2.4656249088679386e+10  2.5837947814681282e+01  -1.0775448547487981e+18  -1.5232502374540770e+03  1.9396961999980749e+19  1.6141774994657786e+02  2.3919529173122916e+11  1.0620244037950352e+11  1.4425381210364838e+17  2.