<?xml version="1.0"?>
<VTKFile type="UnstructuredGrid"  version="0.1"  >
<UnstructuredGrid>
<Piece  NumberOfPoints="2331" NumberOfCells="4248">
<Points>
<DataArray  type="Float64"  NumberOfComponents="3"  format="ascii">0 0.3 0  0 0 0  0.04999999999999999 0 0  0.0514582251803892 0.02410733605106462 0  0.0558116365147896 0.04786313285751154 0  0.06299675146291706 0.07092097740850717 0  0.07290879486935808 0.09294463440875382 0  0.08540322682126872 0.1136129493462312 0  0.1002978503657798 0.132624531648159 0  0.117375468351841 0.1497021496342203 0  0.1363870506537689 0.1645967731787313 0  0.1570553655912463 0.177091205130642 0  0.1790790225914929 0.187003248537083 0  0.2021368671424885 0.1941883634852104 0  0.2258926639489354 0.1985417748196108 0  0.25 0.2 0  0.2741073360510646 0.1985417748196108 0  0.2978631328575116 0.1941883634852104 0  0.3209209774085071 0.187003248537083 0  0.3429446344087537 0.177091205130642 0  0.3636129493462312 0.1645967731787313 0  0.3826245316481591 0.1497021496342202 0  0.3997021496342202 0.132624531648159 0  0.4145967731787313 0.1136129493462312 0  0.427091205130642 0.09294463440875371 0  0.4370032485370829 0.07092097740850713 0  0.4441883634852104 0.04786313285751155 0  0.4485417748196108 0.02410733605106461 0  0.45 0 0  0.55 0 0  0.5514582251803892 0.02410733605106462 0  0.5558116365147896 0.04786313285751154 0  0.5629967514629171 0.07092097740850717 0  0.5729087948693581 0.09294463440875382 0  0.5854032268212688 0.1136129493462312 0  0.6002978503657798 0.132624531648159 0  0.617375468351841 0.1497021496342203 0  0.6363870506537689 0.1645967731787313 0  0.6570553655912463 0.177091205130642 0  0.6790790225914929 0.187003248537083 0  0.7021368671424885 0.1941883634852104 0  0.7258926639489354 0.1985417748196108 0  0.75 0.2 0  0.7741073360510646 0.1985417748196108 0  0.7978631328575116 0.1941883634852104 0  0.8209209774085071 0.187003248537083 0  0.8429446344087537 0.177091205130642 0  0.8636129493462312 0.1645967731787313 0  0.8826245316481591 0.1497021496342202 0  0.8997021496342202 0.132624531648159 0  0.9145967731787312 0.1136129493462312 0  0.927091205130642 0.09294463440875371 0  0.9370032485370829 0.07092097740850713 0  0.9441883634852104 0.04786313285751155 0  0.9485417748196108 0.02410733605106461 0  0.95 0 0  1 0 0  1 0.3 0  0.9758926639489353 0.3014582251803892 0  0.9521368671424885 0.3058116365147896 0  0.9290790225914928 0.3129967514629171 0  0.9070553655912461 0.3229087948693581 0  0.8863870506537688 0.3354032268212687 0  0.867375468351841 0.3502978503657798 0  0.8502978503657798 0.367375468351841 0  0.8354032268212687 0.3863870506537689 0  0.822908794869358 0.4070553655912464 0  0.8129967514629171 0.4290790225914929 0  0.8058116365147896 0.4521368671424885 0  0.8014582251803892 0.4758926639489354 0  0.8 0.4999999999999999 0  0.8014582251803892 0.5241073360510646 0  0.8058116365147896 0.5478631328575115 0  0.8129967514629171 0.5709209774085071 0  0.8229087948693581 0.5929446344087538 0  0.8354032268212688 0.6136129493462312 0  0.8502978503657798 0.632624531648159 0  0.867375468351841 0.6497021496342202 0  0.8863870506537689 0.6645967731787313 0  0.9070553655912463 0.677091205130642 0  0.9290790225914929 0.6870032485370829 0  0.9521368671424885 0.6941883634852104 0  0.9758926639489354 0.6985417748196108 0  1 0.7 0  1 1 0  0.95 1 0  0.9485417748196108 0.9758926639489353 0  0.9441883634852104 0.9521368671424885 0  0.9370032485370829 0.9290790225914928 0  0.927091205130642 0.9070553655912463 0  0.9145967731787312 0.8863870506537688 0  0.8997021496342201 0.8673754683518409 0  0.882624531648159 0.8502978503657798 0  0.863612949346231 0.8354032268212686 0  0.8429446344087537 0.822908794869358 0  0.8209209774085071 0.8129967514629171 0  0.7978631328575114 0.8058116365147896 0  0.7741073360510646 0.8014582251803892 0  0.75 0.8 0  0.7258926639489353 0.8014582251803892 0  0.7021368671424885 0.8058116365147896 0  0.6790790225914928 0.8129967514629171 0  0.6570553655912461 0.8229087948693581 0  0.6363870506537688 0.8354032268212688 0  0.617375468351841 0.8502978503657798 0  0.6002978503657798 0.867375468351841 0  0.5854032268212687 0.8863870506537689 0  0.572908794869358 0.9070553655912463 0  0.5629967514629171 0.9290790225914929 0  0.5558116365147896 0.9521368671424885 0  0.5514582251803892 0.9758926639489355 0  0.55 0.9999999999999999 0  0.45 0.9999999999999999 0  0.4485417748196108 0.9758926639489353 0  0.4441883634852104 0.9521368671424885 0  0.4370032485370829 0.9290790225914928 0  0.427091205130642 0.9070553655912463 0  0.4145967731787313 0.8863870506537688 0  0.3997021496342201 0.8673754683518409 0  0.382624531648159 0.8502978503657798 0  0.363612949346231 0.8354032268212686 0  0.3429446344087536 0.822908794869358 0  0.3209209774085071 0.8129967514629171 0  0.2978631328575115 0.8058116365147896 0  0.2741073360510646 0.8014582251803892 0  0.25 0.8 0  0.2258926639489353 0.8014582251803892 0  0.2021368671424885 0.8058116365147896 0  0.1790790225914928 0.8129967514629171 0  0.1570553655912462 0.8229087948693581 0  0.1363870506537688 0.8354032268212688 0  0.117375468351841 0.8502978503657798 0  0.1002978503657797 0.867375468351841 0  0.08540322682126869 0.8863870506537689 0  0.07290879486935797 0.9070553655912463 0  0.06299675146291703 0.9290790225914929 0  0.05581163651478957 0.9521368671424885 0  0.0514582251803892 0.9758926639489355 0  0.04999999999999999 0.9999999999999999 0  0 1 0  -0 0.7000000000000001 0  0.0241073360510646 0.6985417748196108 0  0.04786313285751161 0.6941883634852104 0  0.07092097740850711 0.6870032485370829 0  0.09294463440875372 0.677091205130642 0  0.1136129493462312 0.6645967731787312 0  0.1326245316481591 0.6497021496342202 0  0.1497021496342202 0.632624531648159 0  0.1645967731787313 0.6136129493462312 0  0.177091205130642 0.5929446344087537 0  0.187003248537083 0.5709209774085071 0  0.1941883634852104 0.5478631328575115 0  0.1985417748196108 0.5241073360510646 0  0.2 0.5 0  0.1985417748196108 0.4758926639489353 0  0.1941883634852104 0.4521368671424885 0  0.1870032485370829 0.4290790225914928 0  0.177091205130642 0.4070553655912463 0  0.1645967731787313 0.3863870506537688 0  0.1497021496342202 0.3673754683518409 0  0.132624531648159 0.3502978503657798 0  0.113612949346231 0.3354032268212686 0  0.09294463440875361 0.322908794869358 0  0.07092097740850711 0.3129967514629171 0  0.04786313285751148 0.3058116365147896 0  0.02410733605106464 0.3014582251803892 0  0.6985417748196108 0.5241073360510646 0  0.7 0.5 0  0.6985417748196108 0.4758926639489353 0  0.6941883634852104 0.4521368671424885 0  0.6870032485370829 0.4290790225914928 0  0.677091205130642 0.4070553655912463 0  0.6645967731787312 0.3863870506537688 0  0.6497021496342201 0.3673754683518409 0  0.632624531648159 0.3502978503657798 0  0.613612949346231 0.3354032268212686 0  0.5929446344087537 0.322908794869358 0  0.5709209774085071 0.3129967514629171 0  0.5478631328575114 0.3058116365147896 0  0.5241073360510646 0.3014582251803892 0  0.4999999999999999 0.3 0  0.4758926639489353 0.3014582251803892 0  0.4521368671424885 0.3058116365147896 0  0.4290790225914928 0.3129967514629171 0  0.4070553655912462 0.3229087948693581 0  0.3863870506537688 0.3354032268212687 0  0.367375468351841 0.3502978503657798 0  0.3502978503657798 0.367375468351841 0  0.3354032268212687 0.3863870506537689 0  0.322908794869358 0.4070553655912464 0  0.3129967514629171 0.4290790225914929 0  0.3058116365147896 0.4521368671424885 0  0.3014582251803892 0.4758926639489354 0  0.3 0.4999999999999999 0  0.3014582251803892 0.5241073360510646 0  0.3058116365147896 0.5478631328575115 0  0.3129967514629171 0.5709209774085071 0  0.3229087948693581 0.5929446344087538 0  0.3354032268212687 0.6136129493462312 0  0.3502978503657798 0.632624531648159 0  0.367375468351841 0.6497021496342202 0  0.3863870506537689 0.6645967731787313 0  0.4070553655912463 0.677091205130642 0  0.4290790225914929 0.6870032485370829 0  0.4521368671424885 0.6941883634852104 0  0.4758926639489354 0.6985417748196108 0  0.4999999999999999 0.7 0  0.5241073360510646 0.6985417748196108 0  0.5478631328575116 0.6941883634852104 0  0.5709209774085071 0.6870032485370829 0  0.5929446344087537 0.677091205130642 0  0.6136129493462312 0.6645967731787312 0  0.6326245316481591 0.6497021496342202 0  0.6497021496342202 0.632624531648159 0  0.6645967731787312 0.6136129493462312 0  0.677091205130642 0.5929446344087537 0  0.6870032485370829 0.5709209774085071 0  0.6941883634852104 0.5478631328575115 0  0 0.15 0  1 0.15 0  1 0.85 0  0 0.8500000000000001 0  0 0.075 0  1 0.075 0  1 0.925 0  0 0.925 0  0.5 0.8127595604293815 0  0.5069440078039168 0.190422209288238 0  0.25 0.3127595604293815 0  0.756944007803917 0.3095777907117619 0  0.756944007803917 0.6904222092882382 0  0.25 0.6872404395706185 0  0 0.225 0  0.4255768646051012 0.2241073097134061 0  1 0.7749999999999999 0  0.6773391559270888 0.2766774022734219 0  1 0.225 0  0.6755768646051011 0.7241073097134062 0  0 0.7750000000000001 0  0.5818971135297744 0.2287925518358889 0  0.8318971135297746 0.728792551835889 0  0.1659156081861886 0.7301636995921477 0  0.08376842746533225 0.2299656297760495 0  0.4236002201977974 0.7746535834185855 0  0.0840843918138115 0.7698363004078523 0  0.3340843918138113 0.7301636995921477 0  0.3340843918138114 0.2698363004078523 0  0.9159156081861887 0.2301636995921477 0  0.5840843918138116 0.7698363004078522 0  0.1659156081861887 0.2698363004078523 0  0.9162315725346678 0.7700343702239506 0  0.8340843918138114 0.2698363004078523 0  0.75 0.6146645247768686 0  0.5 0.1125158665330878 0  0.75 0.3874841334669124 0  0.2504983345544904 0.6122915843562002 0  0.2504983345544902 0.3877084156437999 0  0.5 0.8879783056303169 0  0.7005361650220154 0.3333055947145943 0  0.70416808765371 0.6599554817221275 0  0.449930214263529 0.1678187287522426 0  0.2247310981387008 0.7415600637745463 0  0.5155081196221678 0.7563797802146907 0  0.2752689018612993 0.2584399362254537 0  0.05605196690611226 0.8246131191226815 0  0.9439480330938878 0.1
[...]
<PointData  Scalars="Temperature"> 
<DataArray  type="Float64"  Name="Temperature"  format="ascii">3.1403991075721802e+01  3.3101055574885713e+01  3.3093445562473889e+01  3.3062218172069961e+01  3.2973334586346866e+01  3.2831042456575886e+01  3.2634433578122696e+01  3.2381371552272348e+01  3.2074892488447368e+01  3.1712115249249521e+01  3.1285153035310373e+01  3.0799382543606892e+01  3.0267523448949319e+01  2.9699176049165978e+01  2.9103822119951158e+01  2.8500424571721105e+01  2.7898703141391614e+01  2.7306246409507271e+01  2.6744258407767916e+01  2.6209044734559825e+01  2.5721563226652240e+01  2.5288126869115828e+01  2.4908888333970790e+01  2.4602610703856111e+01  2.4363294531465620e+01  2.4196049070189130e+01  2.4082868440101056e+01  2.4023448157154817e+01  2.4004296127222659e+01  2.3663077120323383e+01  2.3638864810600161e+01  2.3564432618736173e+01  2.3432269806214123e+01  2.3246634357959223e+01  2.3004032521381760e+01  2.2720433104022590e+01  2.2416739233966219e+01  2.2102321345194817e+01  2.1794607102339768e+01  2.1506871137496930e+01  2.1247378973847734e+01  2.1021140466725246e+01  2.0829143658975244e+01  2.0668873250954579e+01  2.0536938214414729e+01  2.0431626190661092e+01  2.0347584385996957e+01  2.0282632022285128e+01  2.0233758915311146e+01  2.0197718854200726e+01  2.0172014624873299e+01  2.0154058898431352e+01  2.0142093293349500e+01  2.0134289632394356e+01  2.0129773038645332e+01  2.0128257014723410e+01  2.0126251970866033e+01  2.0169690791838772e+01  2.0178031911104242e+01  2.0201609673097504e+01  2.0238271436043405e+01  2.0284623710777424e+01  2.0337081222680506e+01  2.0389960816655623e+01  2.0439725484979142e+01  2.0480091784858669e+01  2.0508641377315101e+01  2.0519959741204694e+01  2.0517087229421016e+01  2.0500826235928685e+01  2.0475073716162054e+01  2.0444449300163377e+01  2.0408789788454694e+01  2.0369176623617946e+01  2.0327377787529471e+01  2.0283194728616277e+01  2.0238674635806952e+01  2.0197190727454117e+01  2.0158862506177616e+01  2.0126333682983716e+01  2.0099984699039464e+01  2.0080715130738291e+01  2.0068884289440604e+01  2.0064666740644153e+01  2.0023922753120686e+01  2.0024250599176405e+01  2.0025161094145037e+01  2.0027729493553743e+01  2.0031912067050271e+01  2.0037965752615072e+01  2.0046548600096219e+01  2.0058378271199334e+01  2.0074301108358320e+01  2.0095397628368932e+01  2.0122923877531203e+01  2.0157788996660734e+01  2.0199907193980131e+01  2.0249885023092716e+01  2.0306064770052608e+01  2.0369031519885912e+01  2.0435688259781845e+01  2.0504915338847852e+01  2.0571172485799814e+01  2.0632150426283857e+01  2.0681375881829446e+01  2.0717029829856941e+01  2.0733056416189495e+01  2.0733595155740009e+01  2.0719334663103680e+01  2.0697064738845263e+01  2.0678404455079548e+01  2.0670826125309617e+01  2.0730974702753215e+01  2.0752706512186624e+01  2.0810561185265218e+01  2.0901757007989680e+01  2.1026271984766289e+01  2.1186321117203455e+01  2.1378491823630277e+01  2.1602966548619648e+01  2.1852019559566006e+01  2.2124494364249390e+01  2.2405789323892012e+01  2.2684208638431464e+01  2.2946350077370592e+01  2.3174642654782001e+01  2.3359132705721606e+01  2.3486517605594212e+01  2.3554799378228612e+01  2.3561804005574178e+01  2.3507763454700896e+01  2.3405473596986656e+01  2.3259870694335827e+01  2.3081998085750055e+01  2.2889860168045391e+01  2.2702149370399123e+01  2.2538209542704319e+01  2.2425181574867370e+01  2.2378798459259087e+01  2.2379512396323875e+01  2.4224304990971927e+01  2.4229579603899001e+01  2.4248191207832818e+01  2.4278433984739227e+01  2.4320971524690837e+01  2.4377485878660469e+01  2.4453490989783862e+01  2.4558436987259395e+01  2.4697855893754898e+01  2.4874772671125385e+01  2.5103785719499086e+01  2.5380543179475652e+01  2.5705264215566494e+01  2.6065980936461045e+01  2.6457790872307520e+01  2.6876529878842607e+01  2.7324621951967671e+01  2.7807186206579217e+01  2.8326410314294719e+01  2.8866928287216648e+01  2.9412413049233770e+01  2.9936267170497317e+01  3.0417612231588507e+01  3.0829399599176568e+01  3.1138855441006516e+01  3.1335819023671849e+01  2.0512612872263748e+01  2.0543179522042287e+01  2.0586287815346594e+01  2.0643918429132878e+01  2.0719960898197566e+01  2.0820484683359641e+01  2.0952140267250190e+01  2.1120135568479519e+01  2.1332280135687046e+01  2.1586460046491869e+01  2.1888340624063559e+01  2.2239834376220010e+01  2.2636128690330164e+01  2.3074333818349878e+01  2.3545304609436840e+01  2.4039881735949965e+01  2.4539974669288025e+01  2.5034631957559750e+01  2.5493529872447226e+01  2.5909103832991899e+01  2.6244893004757646e+01  2.6493109781609256e+01  2.6630271027788272e+01  2.6662157352744732e+01  2.6575052942729386e+01  2.6393314238307262e+01  2.6126370515159429e+01  2.5799665568778039e+01  2.5436529701965014e+01  2.5051329509125974e+01  2.4658990851042450e+01  2.4253429818499995e+01  2.3852287775273002e+01  2.3456559467666846e+01  2.3072130246161468e+01  2.2709178984950356e+01  2.2366679090138895e+01  2.2057240507040166e+01  2.1778123991715802e+01  2.1534533295709799e+01  2.1322114022590526e+01  2.1140879112685262e+01  2.0986873563693990e+01  2.0860207151382372e+01  2.0754623165364517e+01  2.0668581024781126e+01  2.0600587363766994e+01  2.0549234514356446e+01  2.0513530806599260e+01  2.0493144373793580e+01  2.0486650474712956e+01  2.0493703258418037e+01  3.2393729903394629e+01  2.0150347434031790e+01  2.0041867163789636e+01  2.3235795851330632e+01  3.2898327367578396e+01  2.0134148829625722e+01  2.0029365791944183e+01  2.2660193674077480e+01  2.1091272380443662e+01  2.3571351000566079e+01  2.7955944110283262e+01  2.0716080130615119e+01  2.0334099722201596e+01  2.3801357030549589e+01  3.1784126742267045e+01  2.4905907910307690e+01  2.0055785841921367e+01  2.1269866605346394e+01  2.0162409248475296e+01  2.0511897546228241e+01  2.3862129006814950e+01  2.2415828834804444e+01  2.0184132719230735e+01  2.3947349366148639e+01  3.1316790814148920e+01  2.1709303185155083e+01  2.3864113060915042e+01  2.2739849388899845e+01  2.6624913878134617e+01  2.0229975683039203e+01  2.0796207126448238e+01  2.9808554846965439e+01  2.0083510586557022e+01  2.0428857295602089e+01  2.0398388998975555e+01  2.3775199106322056e+01  2.0653934886589411e+01  2.4533855014506269e+01  2.7277042528995597e+01  2.0880822706720082e+01  2.0969572720592410e+01  2.0460846554877673e+01  2.4447607613213719e+01  2.3566396451225053e+01  2.1147260796973985e+01  2.7809532014596996e+01  2.3459323332275115e+01  2.0180553022706288e+01  3.2023377291711142e+01  2.0055198886731638e+01  2.3858157748360352e+01  2.0362641347191389e+01  2.0896179526378432e+01  2.1325860256229522e+01  2.4242217684048772e+01  2.8823021118425647e+01  2.3413134186602857e+01  2.6932467087425767e+01  2.0825356769050483e+01  2.3817284660630179e+01  2.0579473204755171e+01  2.0457750355564166e+01  2.6656279216695147e+01  2.5328041485367905e+01  2.0698884503414423e+01  2.0754533963021547e+01  2.8849053629919720e+01  2.3201462674021137e+01  2.2861758098574096e+01  2.0299371340846136e+01  2.0496485494097275e+01  2.1740397494934612e+01  2.5577500882936452e+01  2.6093616823803217e+01  2.0601163522449955e+01  2.0715872566036740e+01  2.1719368868652559e+01  2.0261383924869541e+01  2.0613986521555287e+01  2.0515202271264254e+01  2.3831865113319367e+01  2.6008328139945057e+01  2.2161936769132712e+01  2.2293740664072022e+01  2.3091564589160257e+01  2.0126153866198081e+01  2.0124930103653750e+01  2.1373659419713555e+01  3.0721680566337383e+01  2.4058046312134728e+01  2.0271623984409899e+01  2.3758926452985534e+01  3.0508339899785991e+01  2.4117019787120338e+01  2.0183140215370514e+01  2.0333548538230467e+01  2.0070251407803674e+01  3.1410641323217941e+01  2.0157302314291957e+01  2.0040912284001603e+01  3.2500937537226577e+01  2.3100361560373130e+01  2.0548593598654332e+01  2.0249545508206253e+01  2.3261034979536667e+01  2.0421636667190885e+01  2.0706868927235256e+01  2.2893974301461533e+01  2.9666624616140897e+01  2.0235663092315136e+01  2.6301581736337351e+01  2.4270567486750949e+01  2.3568351519801929e+01  3.1553749202780853e+01  2.0081375175181140e+01  2.4546373910879542e+01  2.8041723523795653e+01  2.0898054945342810e+01  2.0191011881628114e+01  2.7311198483231326e+01  2.3973748779403998e+01  2.1212880020301096e+01  2.1334139375755338e+01  2.1715967995329496e+01  2.4563505860496885e+01  2.0593527548354395e+01  2.5316405849624324e+01  2.0476217338358499e+01  2.1078502773418034e+01  2.1679341448531982e+01  2.2413567933657440e+01  2.0958985457775142e+01  2.0196384919887649e+01  2.2157724627487831e+01  2.3632919322086924e+01  2.6938479662804582e+01  2.2752357752484627e+01  2.9655346860252109e+01  2.0384350269134451e+01  2.0889142971946953e+01  2.4171573043088273e+01  3.1758243581328340e+01  2.0460141450213570e+01  2.0182321779568078e+01  2.3771661052196119e+01  2.0977095801897178e+01  2.3554303517376265e+01  2.0157158436314845e+01  2.0552244091608348e+01  2.0054392745224607e+01  2.4260659430540549e+01  2.0748740499722846e+01  2.0822357193428324e+01  2.3883115906773934e+01  3.2090702420079346e+01  2.0396337722573950e+01  2.0460644921814215e+01  2.0362439516210390e+01  2.5011197864293610e+01  2.7441697768571888e+01  2.4074434509701419e+01  2.6852667991323102e+01  2.4156144935375245e+01  2.4030969812994950e+01  2.3574653955711614e+01  2.0560927378264285e+01  2.0693723065682896e+01  2.0779131753930933e+01  2.0761468177938447e+01  2.0908659572921380e+01  2.0048989758197976e+01  2.4113070445046613e+01  2.0035193217943949e+01  2.0166120983817510e+01  3.1523496383683110e+01  2.0128326032363649e+01  3.3048530484978052e+01  2.0142132676750229e+01  2.0142770900163207e+01  3.2671312178732265e+01  2.0025372680772850e+01  2.2459209008963271e+01  2.0061768467556757e+01  2.2930372748879236e+01  2.2811785145224178e+01  2.6772634234710303e+01  2.4787290586251789e+01  2.3885113622117515e+01  2.7211640881143964e+01  2.1100764095350559e+01  2.0093270039807997e+01  2.3138391436720266e+01  2.8745224221775423e+01  2.0289793225469506e+01  2.0337700745960131e+01  2.1394904056871006e+01  2.0060404535531674e+01  2.0955244332531770e+01  2.3305988364935384e+01  2.4200110089883474e+01  2.7862874795394831e+01  3.0467735949514747e+01  2.2061634207778742e+01  2.3313101333256519e+01  2.0713709961400287e+01  2.0626229633560907e+01  2.1066127564836275e+01  2.0503720343140049e+01  2.0541658959723936e+01  2.0033285437651195e+01  3.2763950222845970e+01  3.1066352413378418e+01  2.0240892554923704e+01  2.3436969806283571e+01  2.8627192044159809e+01  2.0334142779226287e+01  2.2831562339060063e+01  2.0439966244334432e+01  2.0219888177622202e+01  2.0996898343568997e+01  2.5486365399794099e+01  2.0607892082036127e+01  2.1938778993899156e+01  3.2972242883297739e+01  2.0134377838771563e+01  2.0027593723701536e+01  2.2557431849557165e+01  2.1989762321197894e+01  2.0469498159817899e+01  2.4374122120250671e+01  2.3257745406033703e+01  2.3396692513698312e+01  2.0182097739300360e+01  2.0159329361792878e+01  2.2393905747444268e+01  3.1956085218429013e+01  3.1685740402058368e+01  3.2209108749840617e+01  2.4914430854796809e+01  2.4657724504137430e+01  3.1057937698399758e+01  2.1280740620885734e+01  2.4279269099383683e+01  2.3606479112577507e+01  2.0296906090735437e+01  2.1134273014806329e+01  2.0734872250787955e+01  2.5873642559247088e+01  2.0688741359543108e+01  2.0046806346283773e+01  2.0501123178498322e+01  2.0398749556626594e+01  2.2493933075080502e+01  2.0702219197049711e+01  2.0427536115169563e+01  2.3927348227576569e+01  2.3729942511449554e+01  2.0523419175684175e+01  2.0597312518575190e+01  2.6249877034255949e+01  2.6618848111293460e+01  2.1077250170509743e+01  2.0149189859850541e+01  2.0763479937447176e+01  2.1656722498378802e+01  2.7200200373692606e+01  2.2545984301607266e+01  2.9226426584099890e+01  2.3106146244005171e+01  2.3356843378738265e+01  2.3817565275072646e+01  2.7627932786977908e+01  2.8181554303621237e+01  2.3597189425846341e+01  2.0806556500044966e+01  2.0759849523390898e+01  2.7415929900665116e+01  2.4100566590804014e+01  2.6706100893001320e+01  2.9095323052545975e+01  2.3286889915157623e+01  2.4504811750814344e+01  2.0942373394888040e+01  2.0503067332673602e+01  2.0471504875415963e+01  2.5663702849872461e+01  2.5731161749473355e+01  3.0230422470818834e+01  2.0438072168539854e+01  2.0392678016143783e+01  2.0353989846833308e+01  2.5068603762143027e+01  2.0533374854361785e+01  2.1136596654642133e+01  2.5097144227948139e+01  2.1272492919105058e+01  2.1485693986366410e+01  2.0850819368649308e+01  2.3805982885208881e+01  2.3718723348194501e+01  2.1002707774537939e+01  2.1435907369691684e+01  2.0066928622544193e+01  3.1047458950837367e+01  2.0480335281635877e+01  2.2898070355910846e+01  2.0138577825527587e+01  2.0106016827644041e+01  2.0591497779975029e+01  2.0458215458217808e+01  2.0379382617404740e+01  2.3637121345563983e+01  2.5775452891123255e+01  2.6138572411378988e+01  2.0622130910510496e+01  2.0687230462399221e+01  2.2099421461316368e+01  2.2496435282808630e+01  2.3575278549032085e+01  2.2071687669099720e+01  2.0281181847510624e+01  2.0429777082828899e+01  2.0207629589042909e+01  2.3646796871446764e+01  2.2849437897026377e+01  2.0024077199004672e+01  2.0127199008283867e+01  3.3097858637317792e+01  2.2378685218747549e+01  2.3987482817935089e+01  2.2041030213316073e+01  2.6183898510898462e+01  2.1500420521685221e+01  2.0544207880470186e+01  2.0329045918906974e+01  2.3635632908440826e+01  2.4001835909547832e+01  2.6998082602542997e+01  2.0569355381649608e+01  2.0158693464123090e+01  2.0138237114132473e+01  2.0107151563269781e+01  2.0160915829953556e+01  2.0805064604945855e+01  2.6503581739416088e+01  2.4827800968831408e+01  2.0712755399796240e+01  2.0678393208291503e+01  2.0815125465267666e+01  2.0686606293938638e+01  2.0422288467906998e+01  2.5404137138782779e+01  2.5133000621987676e+01  3.0071216233712875e+01  2.6715827007141026e+01  2.1974109199429691e+01  3.0913926267653789e+01  2.4060899005211169e+01  2.2465494099455526e+01  2.0620200162868780e+01  3.1646278330903431e+01  2.4604490684241995e+01  2.0289580573665052e+01  2.0311259635416846e+01  2.0064122577251819e+01  2.3747248079510506e+01  2.9392852202085098e+01  2.2963752120468993e+01  2.3794505615750449e+01  2.3944596745648184e+01  2.3878866708744237e+01  2.6221694985659667e+01  2.0552158504367839e+01  3.2244778002860777e+01  2.0097239415292336e+01  2.7000183180947111e+01  2.1589638035273197e+01  2.3710291223719288e+01  2.0164880091418951e+01  2.0349669132594638e+01  2.1198110484918882e+01  2.6453488858141395e+01  2.0720237771975061e+01  2.8564092324843124e+01  2.0539850163524743e+01  2.0060584705356831e+01  2.4236476862860229e+01  2.1518316925664863e+01  2.6501857896855363e+01  2.0260812446369691e+01  2.3799769409357488e+01  2.0129709337395546e+01  2.2435259206584533e+01  3.3061104752329932e+01  2.0025107705801918e+01  2.3352640821995866e+01  2.0647465072742591e+01  2.0116513047810820e+01  2.0391219898126149e+01  2.4118515834951761e+01  2.1381115843786290e+01  2.0219148278907511e+01  2.0785045414967581e+01  3.1238552429038155e+01  2.4371771022584554e+01  2.4026083480817825e+01  2.3659117936539001e+01  2.0516453005987259e+01  2.2240439292907968e+01  2.2604188995792995e+01  2.4192123145165532e+01  2.0187253137002028e+01  2.3909332805033770e+01  2.0533783654186305e+01  2.3214917238506374e+01  2.8164496047483777e+01  2.4470070262909626e+01  2.0235110223753686e+01  2.8353007587658499e+01  2.1235671541121633e+01  2.0214497974361198e+01  2.0308274839842451e+01  2.0301224556298958e+01  2.0843241111975502e+01  2.0837245957365898e+01  2.0071508298774912e+01  2.3498519645990747e+01  2.9304659864682392e+01  2.2845457534809743e+01  2.0994446816729198e+01  2.0483441920749662e+01  2.4409208085567379e+01  2.3706554731944976e+01  2.0053183031972981e+01  2.7660907619490455e+01  2.3660475441914627e+01  2.3716796395125947e+01  2.0720643591556467e+01  2.3950053191961629e+01  2.3274596349669505e+01  2.9975435278816416e+01  2.0213415354583994e+01  2.3434103898521933e+01  2.4012676173130718e+01  2.0199847642982583e+01  2.0164644574662287e+01  2.0170157131757730e+01  2.0067656218646469e+01  3.1991924368979973e+01  2.1932403225566571e+01  2.7880677070807067e+01  2.0809240164993518e+01  2.3464521835824982e+01  2.2729942300938035e+01  2.1775262269400194e+01  2.4258308388089251e+01  2.6986168502318062e+01  2.8398120642289328e+01  2.0315048519572564e+01  2.2950207605361122e+01  2.0159873843166725e+01  2.0177785328049545e+01  2.4319825698895812e+01  2.1588984015636136e+01  3.0657362216225668e+01  2.0258311206617485e+01  3.0193265092750963e+01  3.0596894776074524e+01  2.0079159454392716e+01  2.0066308601471114e+01  3.1416596682387087e+01  3.1513682380403750e+01  2.5762287580840159e+01  2.1519038475593884e+01  2.0668458853926417e+01  2.0587537582297671e+01  2.1578419692388604e+01  2.1266894399470914e+01  2.0755829104446818e+01  2.0048296543814569e+01  2.0817895294813216e+01  2.1921854958468153e+01  2.6977527806672924e+01  2.6378011521136145e+01  2.0524731916936332e+01  2.0550833839607293e+01  2.0741271413548333e+01  2.1480875873805168e+01  2.0409354558319354e+01  2.6738087373782577e+01  2.4237705904781535e+01  2.3592785039162919e+01  2.4706314060136368e+01  2.4463529946045160e+01  2.7678877914305250e+01  2.0038431000008206e+01  3.2537299292672024e+01  3.2409813999333586e+01  3.2414846686967756e+01  2.0046817042637933e+01  2.0037753737215279e+01  2.0177082532682437e+01  2.3475659688643219e+01  2.0242755281108273e+01  2.5018220968569377e+01  2.0353038748149643e+01  2.0168220004628857e+01  2.0153397500428966e+01  2.3288922567343572e+01  2.3080799677536820e+01  2.3195372743443691e+01  2.0718712194887956e+01  3.2631404314581019e+01  2.2967658449444603e+01  2.0146234269692243e+01  2.0092388084981625e+01  2.3088687797077931e+01  2.1019232709650623e+01  2.2667315439012309e+01  2.7475720702883354e+01  2.4260626066182127e+01  2.0168241728845153e+01  2.4193179532506047e+01  2.0493563753103381e+01  2.0271805393182724e+01  2.0289078213920259e+01  2.0206803591325862e+01  2.9110174229950324e+01  2.1010999273152287e+01  3.1428176399530763e+01  2.0228527550675111e+01  2.3518023165077501e+01  2.0258500508352927e+01  2.4749833834095277e+01  2.3103725465643507e+01  2.0041075133879694e+01  2.1179100105227409e+01  3.1263428674898364e+01  2.0333823546439863e+01  2.0126622649222803e+01  2.0617182116253488e+01  2.6495584746765232e+01  2.3000177176612976e+01  2.0493201602250139e+01  2.1230795021314400e+01  2.0897616497926254e+01  2.0757359337664472e+01  2.9281635339550768e+01  2.5963982399285179e+01  2.2559163826485342e+01  2.0871430082123290e+01  2.0377131609375294e+01  2.0651479860316609e+01  2.0899813259133580e+01  2.0918522863570079e+01  2.3555527188389231e+01  2.4355968825347706e+01  2.2819795385135794e+01  2.0172206451911801e+01  2.4158043827419867e+01  2.0251886003041200e+01  2.7674386586951496e+01  2.3951778547473236e+01  2.4034116974543007e+01  2.3945581968346872e+01  2.4382536308909398e+01  2.0477120128191402e+01  2.1849463044516440e+01  2.0455266984525021e+01  2.0454696679316754e+01  2.0396042828511558e+01  2.1120767851245361e+01  2.0075046859607557e+01  2.0204228738956214e+01  2.1372876103937276e+01  3.1437809500409898e+01  3.1813513695396040e+01  3.0101973510147321e+01  2.1174458883932644e+01  2.3120962774244013e+01  2.2859814636651912e+01  2.0508351004332919e+01  2.0668656066361311e+01  2.9519835792128415e+01  2.6135779987665440e+01  2.0083464538723934e+01  2.4201832445479354e+01  2.4730036552003760e+01  2.0371843862146410e+01  2.9015400176782151e+01  2.0638388073813669e+01  2.5034557632489086e+01  2.0558971583025954e+01  2.5261977617034042e+01  2.1665124474078965e+01  2.1785510177150424e+01  2.0760997342811201e+01  2.6994834669674752e+01  2.0912201030878606e+01  2.0471426024117008e+01  2.0791636426826621e+01  2.0723225635550612e+01  2.6620436181394403e+01  2.0943627957266013e+01  2.1246441568631138e+01  2.5610016420396740e+01  2.1396006728682519e+01  2.0488298592257660e+01  2.4672871208182020e+01  2.0036442489441249e+01  3.2590771031456072e+01  2.443