<?xml version="1.0"?>
<VTKFile type="UnstructuredGrid"  version="0.1"  >
<UnstructuredGrid>
<Piece  NumberOfPoints="2331" NumberOfCells="4248">
<Points>
<DataArray  type="Float64"  NumberOfComponents="3"  format="ascii">0 0.3 0  0 0 0  0.04999999999999999 0 0  0.0514582251803892 0.02410733605106462 0  0.0558116365147896 0.04786313285751154 0  0.06299675146291706 0.07092097740850717 0  0.07290879486935808 0.09294463440875382 0  0.08540322682126872 0.1136129493462312 0  0.1002978503657798 0.132624531648159 0  0.117375468351841 0.1497021496342203 0  0.1363870506537689 0.1645967731787313 0  0.1570553655912463 0.177091205130642 0  0.1790790225914929 0.187003248537083 0  0.2021368671424885 0.1941883634852104 0  0.2258926639489354 0.1985417748196108 0  0.25 0.2 0  0.2741073360510646 0.1985417748196108 0  0.2978631328575116 0.1941883634852104 0  0.3209209774085071 0.187003248537083 0  0.3429446344087537 0.177091205130642 0  0.3636129493462312 0.1645967731787313 0  0.3826245316481591 0.1497021496342202 0  0.3997021496342202 0.132624531648159 0  0.4145967731787313 0.1136129493462312 0  0.427091205130642 0.09294463440875371 0  0.4370032485370829 0.07092097740850713 0  0.4441883634852104 0.04786313285751155 0  0.4485417748196108 0.02410733605106461 0  0.45 0 0  0.55 0 0  0.5514582251803892 0.02410733605106462 0  0.5558116365147896 0.04786313285751154 0  0.5629967514629171 0.07092097740850717 0  0.5729087948693581 0.09294463440875382 0  0.5854032268212688 0.1136129493462312 0  0.6002978503657798 0.132624531648159 0  0.617375468351841 0.1497021496342203 0  0.6363870506537689 0.1645967731787313 0  0.6570553655912463 0.177091205130642 0  0.6790790225914929 0.187003248537083 0  0.7021368671424885 0.1941883634852104 0  0.7258926639489354 0.1985417748196108 0  0.75 0.2 0  0.7741073360510646 0.1985417748196108 0  0.7978631328575116 0.1941883634852104 0  0.8209209774085071 0.187003248537083 0  0.8429446344087537 0.177091205130642 0  0.8636129493462312 0.1645967731787313 0  0.8826245316481591 0.1497021496342202 0  0.8997021496342202 0.132624531648159 0  0.9145967731787312 0.1136129493462312 0  0.927091205130642 0.09294463440875371 0  0.9370032485370829 0.07092097740850713 0  0.9441883634852104 0.04786313285751155 0  0.9485417748196108 0.02410733605106461 0  0.95 0 0  1 0 0  1 0.3 0  0.9758926639489353 0.3014582251803892 0  0.9521368671424885 0.3058116365147896 0  0.9290790225914928 0.3129967514629171 0  0.9070553655912461 0.3229087948693581 0  0.8863870506537688 0.3354032268212687 0  0.867375468351841 0.3502978503657798 0  0.8502978503657798 0.367375468351841 0  0.8354032268212687 0.3863870506537689 0  0.822908794869358 0.4070553655912464 0  0.8129967514629171 0.4290790225914929 0  0.8058116365147896 0.4521368671424885 0  0.8014582251803892 0.4758926639489354 0  0.8 0.4999999999999999 0  0.8014582251803892 0.5241073360510646 0  0.8058116365147896 0.5478631328575115 0  0.8129967514629171 0.5709209774085071 0  0.8229087948693581 0.5929446344087538 0  0.8354032268212688 0.6136129493462312 0  0.8502978503657798 0.632624531648159 0  0.867375468351841 0.6497021496342202 0  0.8863870506537689 0.6645967731787313 0  0.9070553655912463 0.677091205130642 0  0.9290790225914929 0.6870032485370829 0  0.9521368671424885 0.6941883634852104 0  0.9758926639489354 0.6985417748196108 0  1 0.7 0  1 1 0  0.95 1 0  0.9485417748196108 0.9758926639489353 0  0.9441883634852104 0.9521368671424885 0  0.9370032485370829 0.9290790225914928 0  0.927091205130642 0.9070553655912463 0  0.9145967731787312 0.8863870506537688 0  0.8997021496342201 0.8673754683518409 0  0.882624531648159 0.8502978503657798 0  0.863612949346231 0.8354032268212686 0  0.8429446344087537 0.822908794869358 0  0.8209209774085071 0.8129967514629171 0  0.7978631328575114 0.8058116365147896 0  0.7741073360510646 0.8014582251803892 0  0.75 0.8 0  0.7258926639489353 0.8014582251803892 0  0.7021368671424885 0.8058116365147896 0  0.6790790225914928 0.8129967514629171 0  0.6570553655912461 0.8229087948693581 0  0.6363870506537688 0.8354032268212688 0  0.617375468351841 0.8502978503657798 0  0.6002978503657798 0.867375468351841 0  0.5854032268212687 0.8863870506537689 0  0.572908794869358 0.9070553655912463 0  0.5629967514629171 0.9290790225914929 0  0.5558116365147896 0.9521368671424885 0  0.5514582251803892 0.9758926639489355 0  0.55 0.9999999999999999 0  0.45 0.9999999999999999 0  0.4485417748196108 0.9758926639489353 0  0.4441883634852104 0.9521368671424885 0  0.4370032485370829 0.9290790225914928 0  0.427091205130642 0.9070553655912463 0  0.4145967731787313 0.8863870506537688 0  0.3997021496342201 0.8673754683518409 0  0.382624531648159 0.8502978503657798 0  0.363612949346231 0.8354032268212686 0  0.3429446344087536 0.822908794869358 0  0.3209209774085071 0.8129967514629171 0  0.2978631328575115 0.8058116365147896 0  0.2741073360510646 0.8014582251803892 0  0.25 0.8 0  0.2258926639489353 0.8014582251803892 0  0.2021368671424885 0.8058116365147896 0  0.1790790225914928 0.8129967514629171 0  0.1570553655912462 0.8229087948693581 0  0.1363870506537688 0.8354032268212688 0  0.117375468351841 0.8502978503657798 0  0.1002978503657797 0.867375468351841 0  0.08540322682126869 0.8863870506537689 0  0.07290879486935797 0.9070553655912463 0  0.06299675146291703 0.9290790225914929 0  0.05581163651478957 0.9521368671424885 0  0.0514582251803892 0.9758926639489355 0  0.04999999999999999 0.9999999999999999 0  0 1 0  -0 0.7000000000000001 0  0.0241073360510646 0.6985417748196108 0  0.04786313285751161 0.6941883634852104 0  0.07092097740850711 0.6870032485370829 0  0.09294463440875372 0.677091205130642 0  0.1136129493462312 0.6645967731787312 0  0.1326245316481591 0.6497021496342202 0  0.1497021496342202 0.632624531648159 0  0.1645967731787313 0.6136129493462312 0  0.177091205130642 0.5929446344087537 0  0.187003248537083 0.5709209774085071 0  0.1941883634852104 0.5478631328575115 0  0.1985417748196108 0.5241073360510646 0  0.2 0.5 0  0.1985417748196108 0.4758926639489353 0  0.1941883634852104 0.4521368671424885 0  0.1870032485370829 0.4290790225914928 0  0.177091205130642 0.4070553655912463 0  0.1645967731787313 0.3863870506537688 0  0.1497021496342202 0.3673754683518409 0  0.132624531648159 0.3502978503657798 0  0.113612949346231 0.3354032268212686 0  0.09294463440875361 0.322908794869358 0  0.07092097740850711 0.3129967514629171 0  0.04786313285751148 0.3058116365147896 0  0.02410733605106464 0.3014582251803892 0  0.6985417748196108 0.5241073360510646 0  0.7 0.5 0  0.6985417748196108 0.4758926639489353 0  0.6941883634852104 0.4521368671424885 0  0.6870032485370829 0.4290790225914928 0  0.677091205130642 0.4070553655912463 0  0.6645967731787312 0.3863870506537688 0  0.6497021496342201 0.3673754683518409 0  0.632624531648159 0.3502978503657798 0  0.613612949346231 0.3354032268212686 0  0.5929446344087537 0.322908794869358 0  0.5709209774085071 0.3129967514629171 0  0.5478631328575114 0.3058116365147896 0  0.5241073360510646 0.3014582251803892 0  0.4999999999999999 0.3 0  0.4758926639489353 0.3014582251803892 0  0.4521368671424885 0.3058116365147896 0  0.4290790225914928 0.3129967514629171 0  0.4070553655912462 0.3229087948693581 0  0.3863870506537688 0.3354032268212687 0  0.367375468351841 0.3502978503657798 0  0.3502978503657798 0.367375468351841 0  0.3354032268212687 0.3863870506537689 0  0.322908794869358 0.4070553655912464 0  0.3129967514629171 0.4290790225914929 0  0.3058116365147896 0.4521368671424885 0  0.3014582251803892 0.4758926639489354 0  0.3 0.4999999999999999 0  0.3014582251803892 0.5241073360510646 0  0.3058116365147896 0.5478631328575115 0  0.3129967514629171 0.5709209774085071 0  0.3229087948693581 0.5929446344087538 0  0.3354032268212687 0.6136129493462312 0  0.3502978503657798 0.632624531648159 0  0.367375468351841 0.6497021496342202 0  0.3863870506537689 0.6645967731787313 0  0.4070553655912463 0.677091205130642 0  0.4290790225914929 0.6870032485370829 0  0.4521368671424885 0.6941883634852104 0  0.4758926639489354 0.6985417748196108 0  0.4999999999999999 0.7 0  0.5241073360510646 0.6985417748196108 0  0.5478631328575116 0.6941883634852104 0  0.5709209774085071 0.6870032485370829 0  0.5929446344087537 0.677091205130642 0  0.6136129493462312 0.6645967731787312 0  0.6326245316481591 0.6497021496342202 0  0.6497021496342202 0.632624531648159 0  0.6645967731787312 0.6136129493462312 0  0.677091205130642 0.5929446344087537 0  0.6870032485370829 0.5709209774085071 0  0.6941883634852104 0.5478631328575115 0  0 0.15 0  1 0.15 0  1 0.85 0  0 0.8500000000000001 0  0 0.075 0  1 0.075 0  1 0.925 0  0 0.925 0  0.5 0.8127595604293815 0  0.5069440078039168 0.190422209288238 0  0.25 0.3127595604293815 0  0.756944007803917 0.3095777907117619 0  0.756944007803917 0.6904222092882382 0  0.25 0.6872404395706185 0  0 0.225 0  0.4255768646051012 0.2241073097134061 0  1 0.7749999999999999 0  0.6773391559270888 0.2766774022734219 0  1 0.225 0  0.6755768646051011 0.7241073097134062 0  0 0.7750000000000001 0  0.5818971135297744 0.2287925518358889 0  0.8318971135297746 0.728792551835889 0  0.1659156081861886 0.7301636995921477 0  0.08376842746533225 0.2299656297760495 0  0.4236002201977974 0.7746535834185855 0  0.0840843918138115 0.7698363004078523 0  0.3340843918138113 0.7301636995921477 0  0.3340843918138114 0.2698363004078523 0  0.9159156081861887 0.2301636995921477 0  0.5840843918138116 0.7698363004078522 0  0.1659156081861887 0.2698363004078523 0  0.9162315725346678 0.7700343702239506 0  0.8340843918138114 0.2698363004078523 0  0.75 0.6146645247768686 0  0.5 0.1125158665330878 0  0.75 0.3874841334669124 0  0.2504983345544904 0.6122915843562002 0  0.2504983345544902 0.3877084156437999 0  0.5 0.8879783056303169 0  0.7005361650220154 0.3333055947145943 0  0.70416808765371 0.6599554817221275 0  0.449930214263529 0.1678187287522426 0  0.2247310981387008 0.7415600637745463 0  0.5155081196221678 0.7563797802146907 0  0.2752689018612993 0.2584399362254537 0  0.05605196690611226 0.8246131191226815 0  0.9439480330938878 0.1
[...]
<PointData  Scalars="Temperature"> 
<DataArray  type="Float64"  Name="Temperature"  format="ascii">2.5524367184069408e+01  2.6380550824303235e+01  2.6374212384710159e+01  2.6360470493953461e+01  2.6320830230965683e+01  2.6256138665800911e+01  2.6165084920390242e+01  2.6045324472100237e+01  2.5898533904102219e+01  2.5723865431193889e+01  2.5518555919275947e+01  2.5285660112352932e+01  2.5031118412335744e+01  2.4759065520265910e+01  2.4473022401902696e+01  2.4182128434707757e+01  2.3891581284722363e+01  2.3605666694581785e+01  2.3336066221697010e+01  2.3080986664502923e+01  2.2850171667741538e+01  2.2645640794939197e+01  2.2463725651257601e+01  2.2313751290647858e+01  2.2192029291922818e+01  2.2103991234473487e+01  2.2040100849994680e+01  2.2005116436438204e+01  2.1993126224378162e+01  2.1715219712450821e+01  2.1701120121886493e+01  2.1658210034594461e+01  2.1584654919102217e+01  2.1486629970714549e+01  2.1364060460859818e+01  2.1226427216687441e+01  2.1084890889587744e+01  2.0941365136383915e+01  2.0803238868682389e+01  2.0675257966105477e+01  2.0560103429061719e+01  2.0459584318023946e+01  2.0374136083113662e+01  2.0302709817458886e+01  2.0243856699375939e+01  2.0196871960978232e+01  2.0159308357674053e+01  2.0130171402983198e+01  2.0107877078740550e+01  2.0091248792772070e+01  2.0079231731814254e+01  2.0070828568887968e+01  2.0065306332001065e+01  2.0061760446168947e+01  2.0059772686187493e+01  2.0059125803074547e+01  2.0057204003142651e+01  2.0063284425773549e+01  2.0067394910012808e+01  2.0078573258824171e+01  2.0095267662961902e+01  2.0115762726486732e+01  2.0138680376543206e+01  2.0161797549189043e+01  2.0184308440759068e+01  2.0203587245561696e+01  2.0218884204968905e+01  2.0227114279285399e+01  2.0229324226544207e+01  2.0224771442490759e+01  2.0214693290121836e+01  2.0201460371311065e+01  2.0184354205153181e+01  2.0164649865519877e+01  2.0143876920089713e+01  2.0122433035298315e+01  2.0101461123084604e+01  2.0082663693872657e+01  2.0065719216492383e+01  2.0051637794993734e+01  2.0040257622859077e+01  2.0031817624876719e+01  2.0026478210359610e+01  2.0024501055871291e+01  2.0009498656595326e+01  2.0009789335809483e+01  2.0010202064640779e+01  2.0011337689729775e+01  2.0013157950635900e+01  2.0015753824985328e+01  2.0019444046167933e+01  2.0024533655802152e+01  2.0031332722301958e+01  2.0040294053479595e+01  2.0051977560999742e+01  2.0066859104083207e+01  2.0085035193878788e+01  2.0106876722064904e+01  2.0131731313660680e+01  2.0159818148955345e+01  2.0189439377191199e+01  2.0220257765623860e+01  2.0249076858133506e+01  2.0275312274483618e+01  2.0296157626272937e+01  2.0311021181021268e+01  2.0317054176230609e+01  2.0316465883147103e+01  2.0308931697278304e+01  2.0297190863054229e+01  2.0287088877355863e+01  2.0282825404194742e+01  2.0326988929453588e+01  2.0339279156143650e+01  2.0370528645791833e+01  2.0417800462454657e+01  2.0479605933573307e+01  2.0556554876482572e+01  2.0646829554171990e+01  2.0750574717113690e+01  2.0864577903167081e+01  2.0988808697617664e+01  2.1117189563306109e+01  2.1245469951591637e+01  2.1367457805698603e+01  2.1475816612464701e+01  2.1565197603936408e+01  2.1628413564785188e+01  2.1663125311696064e+01  2.1668079190297583e+01  2.1641954440148346e+01  2.1591644161467691e+01  2.1518562548296948e+01  2.1428088612360849e+01  2.1328481847919559e+01  2.1228528874955682e+01  2.1138014548865115e+01  2.1072703258236615e+01  2.1044776884482363e+01  2.1045913911715452e+01  2.2143261813364358e+01  2.2145043879994443e+01  2.2152952643833309e+01  2.2166549074545355e+01  2.2186610999503742e+01  2.2213939346768726e+01  2.2250507622495903e+01  2.2300502424830647e+01  2.2364204459977660e+01  2.2441548897581132e+01  2.2541578623626602e+01  2.2661862541523025e+01  2.2805237526065632e+01  2.2967856045044137e+01  2.3149624581865801e+01  2.3349998065609338e+01  2.3569269891716665e+01  2.3807528287934865e+01  2.4062575384573986e+01  2.4325654282461795e+01  2.4587523501992695e+01  2.4836390703070506e+01  2.5063293605109568e+01  2.5256143932866500e+01  2.5400844037572664e+01  2.5492823251680541e+01  2.0255943147536822e+01  2.0269087202272090e+01  2.0288878000846150e+01  2.0316016370002686e+01  2.0352265817395910e+01  2.0399768213547638e+01  2.0460933436342714e+01  2.0537969956135459e+01  2.0634079158746626e+01  2.0748666591552865e+01  2.0885303708333783e+01  2.1045277889222902e+01  2.1227285229015106e+01  2.1430567698553201e+01  2.1650710496892870e+01  2.1882510189494781e+01  2.2116813004939857e+01  2.2348124509530905e+01  2.2560111266854896e+01  2.2752290883100994e+01  2.2907535314870120e+01  2.3023913140884382e+01  2.3090313113931895e+01  2.3113069442378979e+01  2.3081614260974604e+01  2.3008927635488011e+01  2.2895209495466162e+01  2.2751751683297424e+01  2.2587426276911483e+01  2.2407337006706779e+01  2.2220424049317764e+01  2.2024264248779012e+01  2.1829926040825445e+01  2.1639113532783483e+01  2.1455869131877684e+01  2.1284847406640552e+01  2.1125171283683652e+01  2.0981846867946025e+01  2.0852840336497451e+01  2.0739992116144450e+01  2.0641303225763412e+01  2.0556636550624784e+01  2.0484483770941342e+01  2.0425111602028814e+01  2.0375856010139167e+01  2.0335793705644150e+01  2.0304049113327707e+01  2.0279873402243815e+01  2.0262515389983914e+01  2.0251876962381189e+01  2.0247128036231040e+01  2.0248716975030234e+01  2.6060541720584581e+01  2.0062955422624537e+01  2.0016218579368349e+01  2.1532260159640870e+01  2.6292632630770136e+01  2.0059534005903892e+01  2.0011683922474106e+01  2.1210217795036698e+01  2.0509568029856542e+01  2.1693199790587855e+01  2.3853931059813963e+01  2.0324604567453822e+01  2.0152490375982495e+01  2.1835553887821384e+01  2.5746415335561736e+01  2.2366985224564147e+01  2.0021123583801653e+01  2.0584822219265508e+01  2.0063095869490947e+01  2.0240689377065419e+01  2.1903921988741171e+01  2.1112893781953513e+01  2.0078495313315745e+01  2.1923263366380649e+01  2.5522983887169925e+01  2.0807635976749911e+01  2.1886666069851533e+01  2.1292712483298647e+01  2.3191990236478034e+01  2.0097953012018884e+01  2.0371993905024848e+01  2.4792669946537060e+01  2.0034077441641749e+01  2.0188183988092849e+01  2.0189269768637871e+01  2.1817095011412007e+01  2.0302232244947568e+01  2.2209972767781917e+01  2.3492330609291844e+01  2.0400328266625433e+01  2.0455328152905938e+01  2.0225441599475406e+01  2.2181500549375723e+01  2.1697666861148850e+01  2.0548262968837751e+01  2.3811552078630633e+01  2.1648932733866708e+01  2.0078189951715277e+01  2.5877390239869456e+01  2.0021866983434286e+01  2.1818395127944111e+01  2.0162078966994645e+01  2.0406076804658269e+01  2.0622274880650352e+01  2.2099843162410608e+01  2.4300441321088133e+01  2.1625969813669190e+01  2.3295729991859677e+01  2.0373378912497209e+01  2.1843494098253942e+01  2.0271390547053674e+01  2.0218652273714429e+01  2.3192330958511921e+01  2.2584893273866264e+01  2.0303704243820771e+01  2.0334746312774161e+01  2.4326277539070112e+01  2.1513917212364664e+01  2.1317005884315389e+01  2.0133442251224867e+01  2.0215717040479447e+01  2.0791886347623105e+01  2.2653400347114701e+01  2.2978121657410917e+01  2.0274126619439393e+01  2.0345397682974376e+01  2.0798864744153349e+01  2.0114369760450796e+01  2.0276092168546604e+01  2.0244084504414790e+01  2.1852267443761715e+01  2.2894417469540546e+01  2.1014301215912774e+01  2.1086203778557746e+01  2.1443794016673184e+01  2.0053037814832749e+01  2.0051705322288086e+01  2.0651584315992135e+01  2.5220974978348870e+01  2.2025681330075610e+01  2.0113168722867037e+01  2.1801464597504911e+01  2.5140882539926348e+01  2.2044238978334278e+01  2.0071951118263424e+01  2.0148643888513437e+01  2.0027471036802503e+01  2.5549353008855199e+01  2.0069440175168641e+01  2.0016503844510350e+01  2.6108005935715578e+01  2.1449345990135637e+01  2.0241185068547189e+01  2.0109240682248359e+01  2.1514874820522124e+01  2.0197592516179665e+01  2.0315839112757587e+01  2.1371467741821995e+01  2.4713454731097059e+01  2.0105672609703575e+01  2.2972027626711153e+01  2.2132943170313126e+01  2.1694747924639952e+01  2.5647435680401866e+01  2.0033925072603186e+01  2.2257171680866268e+01  2.3908406366245600e+01  2.0408451916876988e+01  2.0080777556880200e+01  2.3495919162272482e+01  2.1915517185023763e+01  2.0549009006195178e+01  2.0626845468480408e+01  2.0804873453454757e+01  2.2152618163184112e+01  2.0292563806985658e+01  2.2624053918343233e+01  2.0213104620460150e+01  2.0502682459634404e+01  2.0801517557788852e+01  2.1121393558206250e+01  2.0440786923550956e+01  2.0083900263381398e+01  2.0977129977829428e+01  2.1722934431246088e+01  2.3401056082312898e+01  2.1287182696213026e+01  2.4730109116119248e+01  2.0162623972994066e+01  2.0430547205049312e+01  2.2002394309803890e+01  2.5739417053851586e+01  2.0206954777361418e+01  2.0075007276724680e+01  2.1840627744295698e+01  2.0456535461567714e+01  2.1716696547511859e+01  2.0063382083072518e+01  2.0245153062984862e+01  2.0022358274595121e+01  2.2109192437771739e+01  2.0345843305375716e+01  2.0392460570182756e+01  2.1873233178799801e+01  2.5909749849249671e+01  2.0183214550922099e+01  2.0229469434457283e+01  2.0168918317462694e+01  2.2467493152718269e+01  2.3609495572833193e+01  2.1948112650951106e+01  2.3227701836204140e+01  2.2082777586474400e+01  2.1987860039164328e+01  2.1683080311725845e+01  2.0252160924272161e+01  2.0332362180326665e+01  2.0343155374007843e+01  2.0334644204285688e+01  2.0418605221849525e+01  2.0018718910188262e+01  2.2066485528631585e+01  2.0013859509998461e+01  2.0062551151832643e+01  2.5597367157226447e+01  2.0057830464146072e+01  2.6358033241738237e+01  2.0061501309656858e+01  2.0063903740291277e+01  2.6190741623189140e+01  2.0010108410437635e+01  2.1094323580946718e+01  2.0023359369700156e+01  2.1361215349976842e+01  2.1291948139080564e+01  2.3208671395072052e+01  2.2305580015567749e+01  2.1885727485762516e+01  2.3478292438619626e+01  2.0512497421808476e+01  2.0037631556075318e+01  2.1468493672298592e+01  2.4290801180793750e+01  2.0125882857553766e+01  2.0151699056069230e+01  2.0670402628113898e+01  2.0023481880427198e+01  2.0454148485102230e+01  2.1542934651873548e+01  2.2052866669711953e+01  2.3802556095492452e+01  2.5111083919545784e+01  2.0951832807439750e+01  2.1554191066333846e+01  2.0321987798617325e+01  2.0281301053521169e+01  2.0516426370136546e+01  2.0243877987916591e+01  2.0271243923653522e+01  2.0013407038846271e+01  2.6230253024884860e+01  2.5408464789759609e+01  2.0103577344988672e+01  2.1640420215075704e+01  2.4203575223263659e+01  2.0144607667415691e+01  2.1312183345335324e+01  2.0215649336965893e+01  2.0089806506250813e+01  2.0476803242732576e+01  2.2670926246927507e+01  2.0291209881446029e+01  2.0919662016248143e+01  2.6323267903398207e+01  2.0060790033240565e+01  2.0011120991803853e+01  2.1150488501775794e+01  2.0929732823621137e+01  2.0232520867959803e+01  2.2084201516377064e+01  2.1526724392422313e+01  2.1621913533682822e+01  2.0082207151583528e+01  2.0066602848953679e+01  2.1116802550537489e+01  2.5843216403764323e+01  2.5709016654454274e+01  2.5969676803648923e+01  2.2443827178480724e+01  2.2267830162391409e+01  2.5372784582113116e+01  2.0602267849486058e+01  2.2150775027668942e+01  2.1703084742336941e+01  2.0134794949144936e+01  2.0528513840289140e+01  2.0331812368484659e+01  2.2904024625556982e+01  2.0340534654343745e+01  2.0018579586443757e+01  2.0252492080600110e+01  2.0188339490150803e+01  2.1128864791169018e+01  2.0302305054210748e+01  2.0180499535788545e+01  2.1927869517111692e+01  2.1773177096536919e+01  2.0240225028695825e+01  2.0289417709045932e+01  2.2975953960874442e+01  2.3209913431859700e+01  2.0491503751351200e+01  2.0061881885047903e+01  2.0343383875731131e+01  2.0745363752495678e+01  2.3503377006794004e+01  2.1207356705501780e+01  2.4503906494010444e+01  2.1473274502343639e+01  2.1573425925614103e+01  2.1843392816414340e+01  2.3746172467746629e+01  2.3985057666801477e+01  2.1722697256626795e+01  2.0369405600871968e+01  2.0334471403675444e+01  2.3562087678941648e+01  2.2018888044557023e+01  2.3147607349175242e+01  2.4435388012103601e+01  2.1559960260907459e+01  2.2256668093455513e+01  2.0433908791326580e+01  2.0245507059061438e+01  2.0217667066065498e+01  2.2708397948064139e+01  2.2794004686683081e+01  2.4980735125890373e+01  2.0199421839712166e+01  2.0172734087022420e+01  2.0160997238355623e+01  2.2382446421920502e+01  2.0236222528453816e+01  2.0536445139898390e+01  2.2430562124622053e+01  2.0596753860348947e+01  2.0699966788236665e+01  2.0392908407588106e+01  2.1778882841959284e+01  2.1761653837016372e+01  2.0452493989719137e+01  2.0654572696771208e+01  2.0026889610305137e+01  2.5403516424170380e+01  2.0205122002682508e+01  2.1321450964071815e+01  2.0058592171931377e+01  2.0044589803887760e+01  2.0263279479985037e+01  2.0199246815619034e+01  2.0172200989593193e+01  2.1718480094282512e+01  2.2713268641387767e+01  2.2922725894559825e+01  2.0275211854917153e+01  2.0313562848567894e+01  2.0998972167116072e+01  2.1142113877921222e+01  2.1697665904334343e+01  2.0947138070239202e+01  2.0121845276224125e+01  2.0207077092577677e+01  2.0089568371160748e+01  2.1755091237939439e+01  2.1326186609800317e+01  2.0009634256404350e+01  2.0058110962724502e+01  2.6377891199757091e+01  2.1045085551626563e+01  2.1919991854123772e+01  2.0951543603449743e+01  2.2985468525330869e+01  2.0703693326063632e+01  2.0250904607464637e+01  2.0138803083911249e+01  2.1712012059726234e+01  2.1978527864712412e+01  2.3357325634205822e+01  2.0257317904266792e+01  2.0066674397215664e+01  2.0057994940432991e+01  2.0044349130457412e+01  2.0068212975132518e+01  2.0394992173947585e+01  2.3205236457627095e+01  2.2401201291956951e+01  2.0311553400332091e+01  2.0288694854877900e+01  2.0366790266576697e+01  2.0321708035786695e+01  2.0194306388095427e+01  2.2654586296230701e+01  2.2461636559494409e+01  2.4913422761202700e+01  2.3206528039635877e+01  2.0930852377487973e+01  2.5325037769121870e+01  2.1984291957547306e+01  2.1157672735628701e+01  2.0288837906052205e+01  2.5673162252987701e+01  2.2298291364543893e+01  2.0126641936620501e+01  2.0140688267431113e+01  2.0026230943415648e+01  2.1790624648367455e+01  2.4593984916744535e+01  2.1398073969447843e+01  2.1823447096957398e+01  2.1924828245828948e+01  2.1886987209261004e+01  2.3025339680705351e+01  2.0269273405702648e+01  2.5984386761836394e+01  2.0040445899762908e+01  2.3388166849449050e+01  2.0746303882312670e+01  2.1808818472371492e+01  2.0067088695238507e+01  2.0160711112678801e+01  2.0569919700866645e+01  2.3023074615514449e+01  2.0316733831851810e+01  2.4173339118345510e+01  2.0243924497208848e+01  2.0023106427569346e+01  2.2131004075733120e+01  2.0700237942688315e+01  2.3077647094277836e+01  2.0115127137202542e+01  2.1832581497835715e+01  2.0059084760104085e+01  2.1079391639327433e+01  2.6361942619036462e+01  2.0010087700204611e+01  2.1586197102385334e+01  2.0294560354658323e+01  2.0047605577848572e+01  2.0173351289571535e+01  2.2037936454459622e+01  2.0621423359885195e+01  2.0087403438182047e+01  2.0374278488977733e+01  2.5473014977623254e+01  2.2187958350820857e+01  2.1990001238326215e+01  2.1739442127342848e+01  2.0230000007375523e+01  2.1056443185989835e+01  2.1231687569226438e+01  2.2116191173487639e+01  2.0072401494889959e+01  2.1931522249381835e+01  2.0233613794671310e+01  2.1506387430884285e+01  2.4005296267957387e+01  2.2136802964303435e+01  2.0100816265472023e+01  2.4060539738170284e+01  2.0597892064544006e+01  2.0092442031929568e+01  2.0136303794960128e+01  2.0134568723650613e+01  2.0383620212107044e+01  2.0383184121559143e+01  2.0028454866242445e+01  2.1645579213248464e+01  2.4565759156708005e+01  2.1324250902807478e+01  2.0459285421940031e+01  2.0244375132872840e+01  2.2124436166553735e+01  2.1775284999902226e+01  2.0020476059962583e+01  2.3708208584971935e+01  2.1754715757839413e+01  2.1759167220364258e+01  2.0319442649474691e+01  2.1948178819786850e+01  2.1509889201807123e+01  2.4889406924491457e+01  2.0097248057706093e+01  2.1622951355574397e+01  2.1989197853316128e+01  2.0081901264445481e+01  2.0062923600185837e+01  2.0066891656270311e+01  2.0028277657593900e+01  2.5859617348820596e+01  2.0868015592454825e+01  2.3837208851459845e+01  2.0360393572368061e+01  2.1626940345522083e+01  2.1266628694784909e+01  2.0816868659336361e+01  2.1991440951145915e+01  2.3316413744475636e+01  2.4108191781590445e+01  2.0129972360372371e+01  2.1363678057928706e+01  2.0072694753664692e+01  2.0075528960262208e+01  2.2134753819736314e+01  2.0763173805910228e+01  2.5180082230066475e+01  2.0105009715224220e+01  2.4983790635184903e+01  2.5187511298505452e+01  2.0031248735363103e+01  2.0025403534145184e+01  2.5539986365166833e+01  2.5612403628986350e+01  2.2784538322635434e+01  2.0713569554875217e+01  2.0325063185328219e+01  2.0263811535314115e+01  2.0749309216662954e+01  2.0603288776337298e+01  2.0341282131427619e+01  2.0018726266522396e+01  2.0365564313856023e+01  2.0901924218468054e+01  2.3303984615127902e+01  2.3069081667223415e+01  2.0228854040481490e+01  2.0261070626152488e+01  2.0321512382249200e+01  2.0706869656625962e+01  2.0196136814456381e+01  2.3166411351143772e+01  2.2113105488930806e+01  2.1733851090609896e+01  2.2356352754200479e+01  2.2192718653515868e+01  2.3711290376534773e+01  2.0015010377395207e+01  2.6128726497667387e+01  2.6067290407247143e+01  2.6063557176932395e+01  2.0019348258631208e+01  2.0015482199419274e+01  2.0073948742841740e+01  2.1629671997882564e+01  2.0105957337323265e+01  2.2441558628638127e+01  2.0157691234690930e+01  2.0073550833221326e+01  2.0065444308507534e+01  2.1554762178805511e+01  2.1444905714633379e+01  2.1507267432229579e+01  2.0310215445952487e+01  2.6166425110564340e+01  2.1379938438908713e+01  2.0063931674562959e+01  2.0037615651673086e+01  2.1428687878307539e+01  2.0475048317610160e+01  2.1241222672400632e+01  2.3591767188851300e+01  2.2070904010294900e+01  2.0062859220434802e+01  2.2121174506684088e+01  2.0245300547655066e+01  2.0119919362782916e+01  2.0129122970870096e+01  2.0088710412776489e+01  2.4463759110212884e+01  2.0467370007744325e+01  2.5587332500574032e+01  2.0098527651212031e+01  2.1654154818733279e+01  2.0118284031253271e+01  2.2338541094920622e+01  2.1446647361934193e+01  2.0016152949828978e+01  2.0551276673616218e+01  2.5466411692403081e+01  2.0145043887508297e+01  2.0057252535032156e+01  2.0289172371699209e+01  2.3167765992172765e+01  2.1406718353368433e+01  2.0225332556916122e+01  2.0580337793779957e+01  2.0419214982733898e+01  2.0367983682932156e+01  2.4527907137583188e+01  2.2844515310894796e+01  2.1189839162697115e+01  2.0421432995484668e+01  2.0157062795171452e+01  2.0292560684577708e+01  2.0426387155116544e+01  2.0419250082716907e+01  2.1669298491659845e+01  2.2194834998863783e+01  2.1336661724746993e+01  2.0065500473955936e+01  2.2095914810849422e+01  2.0106036291770003e+01  2.3698995459666406e+01  2.1913113970609952e+01  2.1979691976753006e+01  2.1917177822713565e+01  2.2163871796358677e+01  2.0216544601967765e+01  2.0883908817680105e+01  2.0218889587139621e+01  2.0212193713077230e+01  2.0181187351833792e+01  2.0528580482134874e+01  2.0030810594152300e+01  2.0090254228055478e+01  2.0638170292903052e+01  2.5588153157188746e+01  2.5774167111713439e+01  2.4946139638876296e+01  2.0528731066041757e+01  2.1481112156210159e+01  2.1353773566150661e+01  2.0219138520613537e+01  2.0292821501947355e+01  2.4639963886863384e+01  2.2866094922815424e+01  2.0035126792532036e+01  2.1982104815449066e+01  2.2255133460815831e+01  2.0160301119537351e+01  2.4403013562834694e+01  2.0319106170591024e+01  2.2459526007602747e+01  2.0269358839425379e+01  2.2620634084503330e+01  2.0783675446955854e+01  2.0835047575965515e+01  2.0341363469613079e+01  2.3449446645913063e+01  2.0447517044052940e+01  2.0206887247670888e+01  2.0371686420190215e+01  2.0342235491421853e+01  2.3131483411697893e+01  2.0434610475097774e+01  2.0568627381966504e+01  2.2709710013860793e+01  2.0660515786573463e+01  2.0231782308449969e+01  2.2188656511036907e+01  2.0014495621367100e+01  2.6152739374886650e+01  2.222