<?xml version="1.0"?>
<VTKFile type="UnstructuredGrid"  version="0.1"  >
<UnstructuredGrid>
<Piece  NumberOfPoints="2331" NumberOfCells="4248">
<Points>
<DataArray  type="Float64"  NumberOfComponents="3"  format="ascii">0 0.3 0  0 0 0  0.04999999999999999 0 0  0.0514582251803892 0.02410733605106462 0  0.0558116365147896 0.04786313285751154 0  0.06299675146291706 0.07092097740850717 0  0.07290879486935808 0.09294463440875382 0  0.08540322682126872 0.1136129493462312 0  0.1002978503657798 0.132624531648159 0  0.117375468351841 0.1497021496342203 0  0.1363870506537689 0.1645967731787313 0  0.1570553655912463 0.177091205130642 0  0.1790790225914929 0.187003248537083 0  0.2021368671424885 0.1941883634852104 0  0.2258926639489354 0.1985417748196108 0  0.25 0.2 0  0.2741073360510646 0.1985417748196108 0  0.2978631328575116 0.1941883634852104 0  0.3209209774085071 0.187003248537083 0  0.3429446344087537 0.177091205130642 0  0.3636129493462312 0.1645967731787313 0  0.3826245316481591 0.1497021496342202 0  0.3997021496342202 0.132624531648159 0  0.4145967731787313 0.1136129493462312 0  0.427091205130642 0.09294463440875371 0  0.4370032485370829 0.07092097740850713 0  0.4441883634852104 0.04786313285751155 0  0.4485417748196108 0.02410733605106461 0  0.45 0 0  0.55 0 0  0.5514582251803892 0.02410733605106462 0  0.5558116365147896 0.04786313285751154 0  0.5629967514629171 0.07092097740850717 0  0.5729087948693581 0.09294463440875382 0  0.5854032268212688 0.1136129493462312 0  0.6002978503657798 0.132624531648159 0  0.617375468351841 0.1497021496342203 0  0.6363870506537689 0.1645967731787313 0  0.6570553655912463 0.177091205130642 0  0.6790790225914929 0.187003248537083 0  0.7021368671424885 0.1941883634852104 0  0.7258926639489354 0.1985417748196108 0  0.75 0.2 0  0.7741073360510646 0.1985417748196108 0  0.7978631328575116 0.1941883634852104 0  0.8209209774085071 0.187003248537083 0  0.8429446344087537 0.177091205130642 0  0.8636129493462312 0.1645967731787313 0  0.8826245316481591 0.1497021496342202 0  0.8997021496342202 0.132624531648159 0  0.9145967731787312 0.1136129493462312 0  0.927091205130642 0.09294463440875371 0  0.9370032485370829 0.07092097740850713 0  0.9441883634852104 0.04786313285751155 0  0.9485417748196108 0.02410733605106461 0  0.95 0 0  1 0 0  1 0.3 0  0.9758926639489353 0.3014582251803892 0  0.9521368671424885 0.3058116365147896 0  0.9290790225914928 0.3129967514629171 0  0.9070553655912461 0.3229087948693581 0  0.8863870506537688 0.3354032268212687 0  0.867375468351841 0.3502978503657798 0  0.8502978503657798 0.367375468351841 0  0.8354032268212687 0.3863870506537689 0  0.822908794869358 0.4070553655912464 0  0.8129967514629171 0.4290790225914929 0  0.8058116365147896 0.4521368671424885 0  0.8014582251803892 0.4758926639489354 0  0.8 0.4999999999999999 0  0.8014582251803892 0.5241073360510646 0  0.8058116365147896 0.5478631328575115 0  0.8129967514629171 0.5709209774085071 0  0.8229087948693581 0.5929446344087538 0  0.8354032268212688 0.6136129493462312 0  0.8502978503657798 0.632624531648159 0  0.867375468351841 0.6497021496342202 0  0.8863870506537689 0.6645967731787313 0  0.9070553655912463 0.677091205130642 0  0.9290790225914929 0.6870032485370829 0  0.9521368671424885 0.6941883634852104 0  0.9758926639489354 0.6985417748196108 0  1 0.7 0  1 1 0  0.95 1 0  0.9485417748196108 0.9758926639489353 0  0.9441883634852104 0.9521368671424885 0  0.9370032485370829 0.9290790225914928 0  0.927091205130642 0.9070553655912463 0  0.9145967731787312 0.8863870506537688 0  0.8997021496342201 0.8673754683518409 0  0.882624531648159 0.8502978503657798 0  0.863612949346231 0.8354032268212686 0  0.8429446344087537 0.822908794869358 0  0.8209209774085071 0.8129967514629171 0  0.7978631328575114 0.8058116365147896 0  0.7741073360510646 0.8014582251803892 0  0.75 0.8 0  0.7258926639489353 0.8014582251803892 0  0.7021368671424885 0.8058116365147896 0  0.6790790225914928 0.8129967514629171 0  0.6570553655912461 0.8229087948693581 0  0.6363870506537688 0.8354032268212688 0  0.617375468351841 0.8502978503657798 0  0.6002978503657798 0.867375468351841 0  0.5854032268212687 0.8863870506537689 0  0.572908794869358 0.9070553655912463 0  0.5629967514629171 0.9290790225914929 0  0.5558116365147896 0.9521368671424885 0  0.5514582251803892 0.9758926639489355 0  0.55 0.9999999999999999 0  0.45 0.9999999999999999 0  0.4485417748196108 0.9758926639489353 0  0.4441883634852104 0.9521368671424885 0  0.4370032485370829 0.9290790225914928 0  0.427091205130642 0.9070553655912463 0  0.4145967731787313 0.8863870506537688 0  0.3997021496342201 0.8673754683518409 0  0.382624531648159 0.8502978503657798 0  0.363612949346231 0.8354032268212686 0  0.3429446344087536 0.822908794869358 0  0.3209209774085071 0.8129967514629171 0  0.2978631328575115 0.8058116365147896 0  0.2741073360510646 0.8014582251803892 0  0.25 0.8 0  0.2258926639489353 0.8014582251803892 0  0.2021368671424885 0.8058116365147896 0  0.1790790225914928 0.8129967514629171 0  0.1570553655912462 0.8229087948693581 0  0.1363870506537688 0.8354032268212688 0  0.117375468351841 0.8502978503657798 0  0.1002978503657797 0.867375468351841 0  0.08540322682126869 0.8863870506537689 0  0.07290879486935797 0.9070553655912463 0  0.06299675146291703 0.9290790225914929 0  0.05581163651478957 0.9521368671424885 0  0.0514582251803892 0.9758926639489355 0  0.04999999999999999 0.9999999999999999 0  0 1 0  -0 0.7000000000000001 0  0.0241073360510646 0.6985417748196108 0  0.04786313285751161 0.6941883634852104 0  0.07092097740850711 0.6870032485370829 0  0.09294463440875372 0.677091205130642 0  0.1136129493462312 0.6645967731787312 0  0.1326245316481591 0.6497021496342202 0  0.1497021496342202 0.632624531648159 0  0.1645967731787313 0.6136129493462312 0  0.177091205130642 0.5929446344087537 0  0.187003248537083 0.5709209774085071 0  0.1941883634852104 0.5478631328575115 0  0.1985417748196108 0.5241073360510646 0  0.2 0.5 0  0.1985417748196108 0.4758926639489353 0  0.1941883634852104 0.4521368671424885 0  0.1870032485370829 0.4290790225914928 0  0.177091205130642 0.4070553655912463 0  0.1645967731787313 0.3863870506537688 0  0.1497021496342202 0.3673754683518409 0  0.132624531648159 0.3502978503657798 0  0.113612949346231 0.3354032268212686 0  0.09294463440875361 0.322908794869358 0  0.07092097740850711 0.3129967514629171 0  0.04786313285751148 0.3058116365147896 0  0.02410733605106464 0.3014582251803892 0  0.6985417748196108 0.5241073360510646 0  0.7 0.5 0  0.6985417748196108 0.4758926639489353 0  0.6941883634852104 0.4521368671424885 0  0.6870032485370829 0.4290790225914928 0  0.677091205130642 0.4070553655912463 0  0.6645967731787312 0.3863870506537688 0  0.6497021496342201 0.3673754683518409 0  0.632624531648159 0.3502978503657798 0  0.613612949346231 0.3354032268212686 0  0.5929446344087537 0.322908794869358 0  0.5709209774085071 0.3129967514629171 0  0.5478631328575114 0.3058116365147896 0  0.5241073360510646 0.3014582251803892 0  0.4999999999999999 0.3 0  0.4758926639489353 0.3014582251803892 0  0.4521368671424885 0.3058116365147896 0  0.4290790225914928 0.3129967514629171 0  0.4070553655912462 0.3229087948693581 0  0.3863870506537688 0.3354032268212687 0  0.367375468351841 0.3502978503657798 0  0.3502978503657798 0.367375468351841 0  0.3354032268212687 0.3863870506537689 0  0.322908794869358 0.4070553655912464 0  0.3129967514629171 0.4290790225914929 0  0.3058116365147896 0.4521368671424885 0  0.3014582251803892 0.4758926639489354 0  0.3 0.4999999999999999 0  0.3014582251803892 0.5241073360510646 0  0.3058116365147896 0.5478631328575115 0  0.3129967514629171 0.5709209774085071 0  0.3229087948693581 0.5929446344087538 0  0.3354032268212687 0.6136129493462312 0  0.3502978503657798 0.632624531648159 0  0.367375468351841 0.6497021496342202 0  0.3863870506537689 0.6645967731787313 0  0.4070553655912463 0.677091205130642 0  0.4290790225914929 0.6870032485370829 0  0.4521368671424885 0.6941883634852104 0  0.4758926639489354 0.6985417748196108 0  0.4999999999999999 0.7 0  0.5241073360510646 0.6985417748196108 0  0.5478631328575116 0.6941883634852104 0  0.5709209774085071 0.6870032485370829 0  0.5929446344087537 0.677091205130642 0  0.6136129493462312 0.6645967731787312 0  0.6326245316481591 0.6497021496342202 0  0.6497021496342202 0.632624531648159 0  0.6645967731787312 0.6136129493462312 0  0.677091205130642 0.5929446344087537 0  0.6870032485370829 0.5709209774085071 0  0.6941883634852104 0.5478631328575115 0  0 0.15 0  1 0.15 0  1 0.85 0  0 0.8500000000000001 0  0 0.075 0  1 0.075 0  1 0.925 0  0 0.925 0  0.5 0.8127595604293815 0  0.5069440078039168 0.190422209288238 0  0.25 0.3127595604293815 0  0.756944007803917 0.3095777907117619 0  0.756944007803917 0.6904222092882382 0  0.25 0.6872404395706185 0  0 0.225 0  0.4255768646051012 0.2241073097134061 0  1 0.7749999999999999 0  0.6773391559270888 0.2766774022734219 0  1 0.225 0  0.6755768646051011 0.7241073097134062 0  0 0.7750000000000001 0  0.5818971135297744 0.2287925518358889 0  0.8318971135297746 0.728792551835889 0  0.1659156081861886 0.7301636995921477 0  0.08376842746533225 0.2299656297760495 0  0.4236002201977974 0.7746535834185855 0  0.0840843918138115 0.7698363004078523 0  0.3340843918138113 0.7301636995921477 0  0.3340843918138114 0.2698363004078523 0  0.9159156081861887 0.2301636995921477 0  0.5840843918138116 0.7698363004078522 0  0.1659156081861887 0.2698363004078523 0  0.9162315725346678 0.7700343702239506 0  0.8340843918138114 0.2698363004078523 0  0.75 0.6146645247768686 0  0.5 0.1125158665330878 0  0.75 0.3874841334669124 0  0.2504983345544904 0.6122915843562002 0  0.2504983345544902 0.3877084156437999 0  0.5 0.8879783056303169 0  0.7005361650220154 0.3333055947145943 0  0.70416808765371 0.6599554817221275 0  0.449930214263529 0.1678187287522426 0  0.2247310981387008 0.7415600637745463 0  0.5155081196221678 0.7563797802146907 0  0.2752689018612993 0.2584399362254537 0  0.05605196690611226 0.8246131191226815 0  0.9439480330938878 0.1
[...]
<PointData  Scalars="Temperature"> 
<DataArray  type="Float64"  Name="Temperature"  format="ascii">1.2890623501634887e+36  -7.0708859003407944e+31  -2.1053430276470312e+32  3.3612033752740823e+32  -1.4614335165892733e+33  1.1535220930063670e+34  -3.3591934270141849e+34  2.9226989141513658e+35  3.9854527947294452e+36  -3.2835490931854294e+36  -4.8678594391550612e+38  -5.9095109718807069e+39  -4.5961487075599738e+40  -3.0170474344223273e+41  1.5387348778823205e+42  6.4474016578658502e+42  -5.9955887899843298e+42  1.1115912860272342e+44  -1.6072900203388394e+44  -3.7204916346823192e+44  8.0387995877096171e+45  2.1985383924672080e+46  1.3111221990007763e+46  4.0456573574483993e+46  -2.2045188595440923e+46  -5.3616282672472657e+45  -2.6335720919945830e+45  6.7365554920572133e+44  -5.4131192949832952e+44  -1.3199983942717125e+46  2.4177627083414366e+46  -4.4112145541761717e+46  8.3460727666795269e+47  -4.9044068993857535e+48  -5.4098880184232399e+49  3.6442651001340986e+49  1.4411010136988234e+51  2.1242814394382539e+51  8.7659760752623783e+51  -2.2409872638635791e+52  3.2939744705408056e+53  -2.6978950815786070e+53  6.8918845871086801e+51  1.0392454129358182e+52  7.0051051688312247e+52  -2.2175579701145689e+51  -2.2593709083689981e+52  4.6848195452768097e+50  -1.2945427274545718e+51  5.8717191669893294e+49  -8.5393667379650415e+49  2.7116382766904519e+49  -1.5220502393791858e+48  -5.7621698343124222e+47  -5.1465089966031494e+46  1.3605850289851533e+46  -5.2127070653179000e+44  1.2402129688938057e+53  3.6227340157803260e+53  2.5951139157715314e+54  1.7345016114193801e+55  9.3964015306626246e+55  8.2511001070861312e+56  1.8235774871571224e+57  -9.1455641729695032e+56  1.6726004350639605e+59  -8.8671132875321379e+59  2.4606601360834711e+60  -5.0843503385988019e+61  2.0369645485202993e+62  1.7665651304147109e+63  -1.2037489600054257e+64  3.8863363639808787e+64  -2.6422198538511163e+65  2.2538267635695785e+66  -2.0268153607383833e+66  6.8944347057600849e+67  1.4839057667811491e+69  2.7406178988730195e+69  4.3761094408530469e+70  -6.5037424196759352e+69  -7.9082034238857065e+71  1.5251509855807397e+72  5.5142700838701570e+72  3.7717466174605448e+69  -1.9975052005896969e+70  2.8944331696170213e+70  2.7553072153424507e+70  4.7085767884651940e+71  -5.4770238108890456e+71  2.6386097560695167e+72  -1.6249543543061582e+72  1.2708795987974761e+70  2.0626619080730640e+71  6.7311191952531885e+70  -1.1078859635504224e+70  -1.0439955991055522e+69  -1.4681229050909864e+67  -9.3589632952971368e+66  -4.6584933633862910e+65  -2.2679445991519141e+64  1.6757814737773869e+64  -6.3752507852330862e+62  -2.8791027260525882e+62  8.7627297806618218e+61  -5.1513014752798768e+60  2.4020498923221992e+60  -1.9355221046531758e+59  8.2061983344608379e+58  2.4287688134559533e+57  -7.5881227761766541e+56  -4.5260574868620340e+56  -9.9856559939427573e+54  2.7914081811285272e+54  -4.5832472940823846e+55  5.8966106524426322e+55  7.5705423452845460e+55  3.0191394166006432e+55  -3.7957615339374547e+55  -2.6793986791029642e+55  2.2307384612405064e+54  7.1820033045694072e+53  -1.2874585359727203e+53  3.2377103618183134e+52  -5.2835905027966964e+51  -7.6537986476830073e+50  1.6955330621757245e+50  -2.7311905743271875e+49  -3.4756923626959387e+47  1.1975692037713357e+47  1.2376960237301614e+46  -2.0730415586647733e+43  1.3015908382722779e+44  -1.0090821471633260e+43  -6.4287847765032753e+41  -2.5522176867010913e+41  -6.9782781090550617e+40  -3.2469759746889896e+39  4.9990112443707861e+39  5.1445476718716447e+39  -3.2046685616707048e+42  4.6484329137764680e+42  5.5016800898070590e+43  -1.7958604374676490e+44  -2.5300934975003853e+45  -7.0145220969027180e+45  5.8668083785026508e+46  1.0456499214715628e+47  -5.0889464050796296e+46  2.4116516585645758e+47  4.0480094611896992e+46  -6.4073538598566311e+45  4.7696974634095177e+45  -1.7128686830968621e+45  -6.9653609591140007e+44  1.1836984610148122e+44  -2.9249096442539204e+43  8.4525638240546705e+42  -2.6208621387622921e+42  -2.9965488537874761e+41  1.4716973153236213e+40  -5.2843563504875380e+39  -1.8951712854060871e+39  3.0601700123777614e+37  -4.2581638941977640e+37  -5.7202385842857366e+36  -4.9898082329402261e+60  9.2165870905685183e+61  2.3009893398367633e+60  8.4266449114984942e+60  1.5032797170789542e+59  -7.2468741238502142e+58  1.1424258688144877e+58  -7.4693237531488782e+55  -2.6576252793090550e+56  -8.3789517431958473e+54  -3.5482604768729515e+54  -4.6917657865098779e+52  1.0285762825163880e+53  2.5124670487129689e+52  4.9008038855058123e+50  3.2618079684710782e+50  2.5189349886947529e+49  -1.9706720090869204e+49  -1.4635084837072198e+48  2.6051051740889269e+46  -1.6026003759164749e+46  -1.0876549347616113e+45  7.3867375524382399e+43  -2.6039056816324236e+43  -4.0378878107362526e+43  -6.2530639906570589e+44  4.2047617288525288e+45  -1.8938789902276326e+46  1.4395125298353217e+47  -1.8698989037933925e+47  -9.4219008012173600e+47  -1.0266611030510719e+50  2.7244491548056810e+49  1.1923409670048222e+52  -5.2295693988698429e+52  -1.9009356173091003e+53  5.0677639552665714e+54  1.9955783537066619e+55  8.9741279973525481e+55  1.0118325482141037e+56  6.6189595554800135e+57  1.0361859036314105e+58  9.8236682575864722e+59  -1.4433212272266543e+60  4.5854300085116015e+61  -4.4282826366920672e+61  -1.5856858725925208e+62  -2.5134691302879642e+62  -1.2688732034853170e+61  -8.8403148458922879e+62  1.4090841853823599e+63  1.1243980623174278e+62  -1.8035825262625414e+34  -1.2704307193530942e+50  -4.2192129323506586e+74  3.4129883620737828e+41  -5.3808518826684802e+31  3.8105081597923857e+47  -8.1478238770877182e+71  -6.9109343584611488e+40  -3.0164471860347149e+58  2.4642041764613193e+49  -4.6053815972985056e+41  -8.4982648204485364e+56  1.5331467457608796e+66  1.6686629538195262e+50  1.2221477210209419e+35  -1.2618797053574638e+48  -4.0546049774432832e+74  4.3552450481481441e+53  9.6753561331641627e+51  5.1329442102736553e+63  8.9873009582488015e+42  -1.0094782984776947e+52  1.5071127396813670e+69  6.2153727873299210e+46  2.3572824095633870e+37  -1.2046745468460146e+56  4.6672199516223093e+44  7.1076422231758107e+52  -7.6629077555326384e+45  2.4359350869610654e+53  4.4874166263286164e+61  3.6570818347427695e+40  2.7822784664555484e+72  1.3589498415033421e+54  -8.6075932578795834e+64  -4.9687829512153818e+47  -2.7301108694928267e+58  2.5981591283639051e+49  -4.5442077691857094e+42  -5.5802792849095068e+57  -2.0491480074415259e+56  9.6801391727151057e+63  6.5888733408222138e+47  1.3042453923785007e+47  6.1264867915750069e+58  -1.9185192038311378e+44  4.2642863736424709e+43  -2.7297704409704929e+50  3.0020681788993488e+35  4.4697424608179455e+73  -9.8617512974819568e+49  6.4774002102820695e+65  -3.8051178984023795e+54  -5.9373340699265891e+56  1.8161251677781643e+48  3.9749125868253321e+40  1.8928621754219589e+51  1.4671640570301030e+44  -1.1463202607292752e+59  8.2132418130797908e+45  -1.3181326397655867e+60  2.4058614673452848e+63  -7.1335204822355681e+43  1.7928878186141037e+47  8.4956148992061388e+54  1.0748636970823310e+57  -3.2073193199926714e+42  -5.6151577133803849e+50  -4.1804677097504918e+50  8.7864715107815957e+66  -1.7264435765827195e+57  -1.3843743360415048e+53  -7.4141096529551601e+47  -3.3513108459079477e+46  3.2764021200749274e+63  -8.3831511827091863e+61  -3.1510337795994772e+54  3.2471475932696893e+67  3.0496657286987831e+54  -2.4875644106836481e+62  -1.7710778341013006e+45  -1.8616937404888228e+46  2.5474865774174397e+54  3.6277643302440519e+54  -2.1649010350663871e+51  5.1104628604542375e+70  6.7130600523775874e+70  -1.4025519505623803e+58  -8.6169762676493017e+37  -4.7783406136071123e+42  -1.5996426520806862e+53  5.1018973924179645e+46  -4.5608749690285849e+39  7.2631562073420088e+45  2.9012162430646981e+52  -2.2013855657442544e+53  4.1003930797505732e+72  -2.2043448662895377e+36  -3.4412279744931850e+49  2.0660143415594295e+73  1.6200957517592061e+34  1.5262474557853129e+42  -1.0397893532661983e+59  1.5904070537478860e+68  -2.2819489464363420e+49  7.2642451978532369e+64  -1.3713238352330800e+62  1.4748899518046481e+53  -3.1814074855103593e+39  1.4377815609174575e+52  -1.2224584238864281e+46  -1.7699180082413013e+47  2.3612327094358060e+45  -4.5186468185096269e+37  4.5648985003758107e+71  5.5000411166487324e+48  -3.7763179880851903e+40  -1.4159832695357850e+59  1.6594904224873747e+69  5.7185765083507029e+42  1.2475403427528515e+50  -1.3009810856205889e+54  8.6908100749149902e+55  -5.5318395978543956e+54  -2.3034580042844879e+49  1.1809370373094961e+63  8.8163526941719364e+45  8.5790304102990434e+64  -3.0681611711150958e+56  4.1928612491470040e+56  -1.0762564430717538e+53  6.0952906343980929e+54  5.8496365372896736e+68  5.1427329235669847e+51  5.3345546692837308e+48  -1.9362904050890584e+45  2.2687219712738782e+52  -1.3592339738589628e+41  -2.6898672248580320e+56  3.2434155173047590e+60  -2.2045932036788172e+49  1.2778348091719807e+36  -4.6242404438097255e+53  -6.9067484198011616e+51  3.2143553733498078e+43  -2.0512044496294055e+59  3.7125125056903891e+42  -1.4095859688424286e+50  5.7019431910179577e+55  -6.7105365586936138e+72  1.1814172932854126e+47  3.6201946407301805e+57  2.3784705613720674e+58  2.3480613035256990e+48  6.7008132003376281e+34  -3.8060192171296635e+64  -4.3748757965083311e+63  -5.0938180288561024e+65  -1.4045164971417864e+47  3.6708818913051406e+42  1.5350373778601655e+50  8.2999904660238931e+42  2.9157362504638453e+44  -1.4967111891848401e+46  -1.2423377921054962e+47  6.9755993035594084e+59  5.9738493255018394e+58  -1.7978911551599317e+59  -7.4692129212667850e+57  -1.1539601087001702e+57  5.0876676819305022e+75  -1.9374661392473323e+42  3.7069935361482419e+73  -1.5321556773603875e+51  2.3091774409208574e+35  7.1869575457696699e+46  -3.5791786152504510e+32  -5.2343362969079496e+48  -3.4841094510305727e+48  -2.7129161914678979e+33  -4.8864766444790870e+70  -9.2069378824963665e+38  -6.7511841064404713e+72  5.3296203766117427e+41  -3.6053772249084262e+41  -1.7154214264005026e+43  6.4940959307999968e+48  2.6255402343601122e+49  -3.5386241222593807e+44  -4.8124227240567406e+57  7.6136755583073275e+71  9.7439749035828628e+50  3.3629316635152233e+41  1.6521434810214774e+67  5.6511102631468312e+64  2.5696277150824222e+57  6.9985907945644153e+73  2.8765068081223919e+60  -4.0718955843211344e+50  3.2774230328182126e+49  1.3899283305024849e+42  1.6543674452786615e+39  -4.0792371325959612e+53  -3.4010803910250843e+49  2.6985495226992506e+55  -1.0800757949768143e+58  4.3641266419109464e+59  2.9507238309443145e+63  1.0329842529467481e+63  -9.7772826864446706e+72  -4.9055253281157811e+33  -8.1804227113537809e+38  1.0523240540000389e+68  1.4426560018032524e+51  1.2534010950722341e+42  3.5816504487919028e+53  -6.4676281134483858e+50  -3.5545469039310330e+64  -6.4559630208809794e+53  5.4537011493151145e+57  -2.4627749517357969e+47  1.6087016131423434e+62  4.7136117042901432e+55  -3.8349307168817706e+32  -4.6502696202450727e+47  -3.5154904859850244e+71  8.0773219688569488e+40  -1.9635363413529954e+54  -2.5864674331057385e+63  -2.2555967730732020e+49  -8.3648383322710173e+42  1.0270406185152293e+43  -1.7003494568020560e+50  1.8910995219510175e+49  2.2814769337218507e+53  7.0618779389014880e+35  -3.7259051055276296e+36  4.2544226544367649e+34  1.0108931830073718e+47  -2.0490834081446667e+48  -3.8787078812394287e+37  -2.3867954750741863e+57  -2.1429487217507138e+45  1.9341432811570513e+46  -4.5286253170837703e+52  -5.5216029975601156e+54  1.0616297829088661e+54  -2.8587001518885525e+45  1.0264786185669496e+62  -2.1635073217485520e+74  -2.9318692130296838e+63  2.7798978866870227e+65  -1.5956836019584068e+51  1.3447455387491035e+57  -2.2147998901515825e+57  2.5289546395126685e+45  5.6484883545535659e+45  2.8273222876246657e+61  2.4412630232849724e+60  -9.9750267107163336e+44  -6.7125834730438986e+44  -9.1361000654168880e+54  1.3570998550852298e+70  5.2101780105277448e+55  -1.6024599182663418e+52  -9.7656792858457501e+44  9.2544359957021409e+53  6.8915149196503207e+40  -9.2010114776057653e+50  3.9146362471916219e+49  -1.6699259784047718e+48  -8.1917014739453791e+43  -2.3781805684094199e+43  1.3248046242435785e+50  -6.3495401858115973e+60  1.0332733078659017e+60  -3.3947654182009061e+43  -1.0619400210243114e+48  -1.9278978256350865e+44  -2.0842681885724389e+40  -5.1293996813790049e+51  6.0307766062983496e+47  -3.5635774222955933e+59  -4.4105166981241910e+62  1.6836883567619728e+63  -4.5442611735839694e+46  -1.9828223160965596e+46  -3.0204474137498401e+39  9.7812330412802968e+64  6.2739022746555470e+65  1.0439959369148016e+66  -6.2172243900097751e+48  2.2117152324130769e+64  -3.8185489808489879e+58  2.0710410658473303e+47  6.3903041191447946e+55  3.0016122104654197e+56  1.8990008066353129e+57  -3.3482777410185813e+50  -1.0458888824176639e+50  -1.3699654050512710e+54  1.0088365014301705e+54  3.0847086525056810e+73  9.6790851915817576e+38  4.0527764138683141e+57  -1.5407563055128377e+50  1.0477965562126371e+70  -1.0508422838767542e+70  1.1475978739487403e+56  3.2991899261405915e+55  -1.7340522212171905e+53  5.0871337272878351e+47  -2.2219834777432387e+46  -2.4321438661870017e+46  -8.7164054754514715e+62  1.5210596896472938e+62  -8.4886370097801163e+54  -4.4641837722030294e+51  -3.6692360679730929e+48  4.4962649925123119e+51  9.3621350089375209e+53  -1.4450849352895643e+64  1.1389052844365502e+52  4.2943138215417778e+44  -2.1793631216803358e+52  -1.0309623567712147e+70  -7.1051242202388426e+45  -4.1876479650000868e+31  1.8071851778317177e+39  2.0068641663954796e+49  2.9143300990813429e+53  3.2441971676746094e+45  -7.2976107608381092e+55  8.8224862872565692e+63  -3.5617461774757644e+55  3.0020003401062347e+46  -3.5026608432546199e+45  -4.4034919452041626e+43  5.3305500406226200e+53  5.6479932424403554e+69  3.1252750974613679e+70  3.7876035820968231e+71  5.9098800783440447e+69  -7.8121152586919610e+60  -1.5308541483093869e+45  8.5841978451496703e+47  5.6083527875078406e+55  3.8095229088224989e+55  2.6483776966122598e+56  3.6143154192314535e+61  4.5240935200092240e+64  6.9535878847952935e+46  4.9880279921819130e+47  3.3251460214641796e+39  -5.0893233765034147e+44  1.1985182886124953e+55  3.5179080964269416e+38  2.2245555138947571e+49  1.7737251483768748e+53  3.9949383119760200e+59  4.8179094009405792e+35  1.3339629088133735e+47  1.4381801215290732e+67  4.3352386661952821e+66  4.6184616152449375e+72  3.4414754746426556e+51  -3.7079724630433246e+41  2.4283379157008751e+51  4.8062244023724954e+47  7.9831707194843788e+46  1.0947667993481245e+46  -2.9296903774282563e+45  1.8088169205370897e+61  -4.7725892570580616e+34  -1.1443102285835580e+71  8.0365573490638667e+43  9.6242302881916740e+54  1.0761128706618811e+43  -9.5980427966830649e+50  1.4247423605876952e+66  3.0071992865130923e+56  -3.9486649387558114e+45  -4.9107547804343187e+60  3.7449998756280737e+39  1.4368490594536261e+57  8.9301725983002950e+73  9.9602412138092540e+44  1.1561276365166619e+54  -4.3814805647854611e+43  1.1257031156015855e+53  2.9232778072944699e+46  3.2301608520874107e+46  -7.7711741212599258e+39  -2.3593287016180505e+31  -5.2877317287028535e+70  5.8140531005343506e+49  1.8764457827856377e+58  8.4855013300665375e+70  -1.9147862087021945e+54  -4.9050976196538305e+45  -1.7422321632434605e+53  1.4973331424830594e+54  3.8069289112440307e+61  3.5027012372242504e+36  7.0887153122898388e+46  -4.3399858183063932e+44  7.5281273356579624e+50  5.6295877535229861e+54  -3.3773288172318120e+53  7.9145540845447339e+53  3.2718651840383538e+43  1.9660032395979514e+53  2.6096401194805352e+43  -5.3715242300359244e+59  3.1200632471203057e+50  -8.0399144120906475e+42  -6.8129100017565395e+48  9.6451057739998508e+67  -5.3217979655011182e+41  4.8907060691569654e+55  3.2781947844928259e+68  7.0522916792458029e+66  6.2476465386349740e+66  -7.4163737585971085e+55  -1.7928927139967566e+56  1.3414491150722157e+73  -1.6664728180803049e+48  -1.5340268638009763e+41  6.2059440866955863e+51  -7.4730191669941110e+57  -4.7771088458520871e+63  8.4629752490539898e+49  2.1415201367265992e+45  2.5597274458576555e+74  -7.9215464359075991e+43  -3.3048203902419706e+50  -2.3325665777043724e+45  -1.0473369229833210e+55  1.4208176917140289e+44  -4.3616951869872538e+47  1.1703102586337082e+40  1.3522531417893073e+51  3.0725139728991058e+44  -2.4873515933359526e+44  -1.0028775219823057e+53  -3.3541150836268188e+51  2.2100354400086418e+52  -4.2237249871347759e+72  3.5665441343820984e+35  3.8979270309035298e+51  2.6954879684437046e+42  -2.3245605147500170e+58  -1.0414753116181568e+51  -1.3551507583319469e+52  3.5323430055971592e+53  -7.8870746144273407e+49  -4.8482299335769994e+42  -3.1226089779152156e+43  6.5112787844095008e+55  1.9128002083305342e+42  -5.5442191570438750e+47  -2.0117408792500482e+69  4.1234642289373056e+48  1.6209983641738870e+56  2.2382392305472995e+38  8.7110807259843792e+54  3.7516528575960271e+40  2.7977136290539809e+39  -1.0199482059067010e+72  -2.2639279668440663e+72  -4.7392496629099855e+35  8.5467382625876742e+36  1.1082070685882154e+47  -4.5004201513066055e+55  1.5905674842060374e+60  6.9639462512489232e+58  -1.9800918679459563e+57  2.1635277034937635e+58  7.5634610280746007e+54  -1.5438089769042793e+75  3.5016407109611401e+59  -7.9996088286453977e+54  9.0939570401746435e+43  -3.0933876359187718e+45  -1.4196376907040764e+58  -2.8731852731809805e+61  -2.2844211603106761e+58  -9.1023844037724712e+55  -2.4501639622886363e+65  -3.9257408074913109e+43  4.7434370932041324e+46  3.6274914670486168e+43  6.4275827822687221e+47  2.5622088351876977e+49  -1.1303330373146122e+42  4.1217208223898274e+73  -7.8428416497654421e+33  -3.4629915610394301e+34  -2.0281685670541305e+35  5.2051077165227814e+72  -1.8320339336500179e+72  5.0414778560337345e+68  5.4231021692320281e+49  4.6198592234786848e+67  -4.8100824941062056e+47  -8.2549197626532041e+65  -1.1497899280862323e+50  1.3860593351639049e+49  7.9941371668491346e+42  -2.3853444141751951e+41  1.0216070794415991e+42  7.4715446413127530e+57  5.2246831114177847e+34  -1.0072878521964895e+42  -2.0147427980748144e+48  1.7241411835393137e+72  -4.8638340150842990e+49  2.8937494045560714e+55  -5.4741853564198933e+52  5.6081394720179589e+41  9.6696915694022424e+49  -1.1926875012363018e+52  2.0746385278509063e+42  -3.4254861383895409e+62  3.0826807877254841e+67  1.0176026521548560e+67  7.4630895932204711e+68  -1.7803446275040813e+42  -1.2409028361777838e+58  -5.2865748805049906e+37  2.9901584712883722e+68  -2.8158611328331161e+45  -4.5147693912076895e+51  3.2114748628144457e+48  1.1556003412976299e+50  2.3988332439958444e+74  1.7674511359083392e+57  -3.1239103091658146e+36  6.2540001862681203e+66  7.2423054832294269e+45  -1.1479281388552231e+63  -1.0734366434652479e+46  3.3511778291529575e+51  5.8846760688531014e+62  -1.5811728974458324e+58  3.8266883212674501e+60  1.1677268580368776e+59  -2.5629359252822278e+40  -5.0146175469970436e+45  5.4277908386746003e+52  2.1574886119696524e+58  6.8338806670768788e+56  7.9429724408084229e+56  -8.4139067591494117e+56  3.5000276848604218e+58  -3.5663462686432803e+47  -2.0455834773565230e+46  -1.8472607390106452e+53  -6.6881745065052334e+52  -4.0995669243319578e+42  7.2327998500190707e+53  -5.8419801626240586e+42  -7.3763124236188382e+49  -2.6632682986075429e+47  -9.3602617354558951e+47  -7.5921164570011018e+47  -1.8833750088696690e+51  2.5238285019829727e+55  1.3208295254508794e+64  -3.5834752059000468e+63  2.0275168946408761e+65  5.4156382182254473e+56  1.9247978473528711e+72  -1.3658885341753569e+51  -2.3004936969455118e+55  -1.0452231675491437e+38  -3.6874255016311891e+36  3.4101008213122515e+39  2.7372667039185299e+53  -3.8442032959492242e+52  4.2674658478280727e+52  -1.0357671675088588e+59  4.2888214741671678e+61  -2.5493885708641952e+40  1.4050433545708411e+46  -5.4841007650662824e+71  -1.0559688519935613e+50  6.6262011300548414e+48  -2.8157340475913864e+54  -4.7542343793698165e+41  1.2305520303996577e+62  1.7661042157367496e+47  -2.2151255112461887e+63  -1.5756670880624411e+46  -2.7316009220295311e+55 