<?xml version="1.0"?>
<VTKFile type="UnstructuredGrid"  version="0.1"  >
<UnstructuredGrid>
<Piece  NumberOfPoints="2331" NumberOfCells="4248">
<Points>
<DataArray  type="Float64"  NumberOfComponents="3"  format="ascii">0 0.3 0  0 0 0  0.04999999999999999 0 0  0.0514582251803892 0.02410733605106462 0  0.0558116365147896 0.04786313285751154 0  0.06299675146291706 0.07092097740850717 0  0.07290879486935808 0.09294463440875382 0  0.08540322682126872 0.1136129493462312 0  0.1002978503657798 0.132624531648159 0  0.117375468351841 0.1497021496342203 0  0.1363870506537689 0.1645967731787313 0  0.1570553655912463 0.177091205130642 0  0.1790790225914929 0.187003248537083 0  0.2021368671424885 0.1941883634852104 0  0.2258926639489354 0.1985417748196108 0  0.25 0.2 0  0.2741073360510646 0.1985417748196108 0  0.2978631328575116 0.1941883634852104 0  0.3209209774085071 0.187003248537083 0  0.3429446344087537 0.177091205130642 0  0.3636129493462312 0.1645967731787313 0  0.3826245316481591 0.1497021496342202 0  0.3997021496342202 0.132624531648159 0  0.4145967731787313 0.1136129493462312 0  0.427091205130642 0.09294463440875371 0  0.4370032485370829 0.07092097740850713 0  0.4441883634852104 0.04786313285751155 0  0.4485417748196108 0.02410733605106461 0  0.45 0 0  0.55 0 0  0.5514582251803892 0.02410733605106462 0  0.5558116365147896 0.04786313285751154 0  0.5629967514629171 0.07092097740850717 0  0.5729087948693581 0.09294463440875382 0  0.5854032268212688 0.1136129493462312 0  0.6002978503657798 0.132624531648159 0  0.617375468351841 0.1497021496342203 0  0.6363870506537689 0.1645967731787313 0  0.6570553655912463 0.177091205130642 0  0.6790790225914929 0.187003248537083 0  0.7021368671424885 0.1941883634852104 0  0.7258926639489354 0.1985417748196108 0  0.75 0.2 0  0.7741073360510646 0.1985417748196108 0  0.7978631328575116 0.1941883634852104 0  0.8209209774085071 0.187003248537083 0  0.8429446344087537 0.177091205130642 0  0.8636129493462312 0.1645967731787313 0  0.8826245316481591 0.1497021496342202 0  0.8997021496342202 0.132624531648159 0  0.9145967731787312 0.1136129493462312 0  0.927091205130642 0.09294463440875371 0  0.9370032485370829 0.07092097740850713 0  0.9441883634852104 0.04786313285751155 0  0.9485417748196108 0.02410733605106461 0  0.95 0 0  1 0 0  1 0.3 0  0.9758926639489353 0.3014582251803892 0  0.9521368671424885 0.3058116365147896 0  0.9290790225914928 0.3129967514629171 0  0.9070553655912461 0.3229087948693581 0  0.8863870506537688 0.3354032268212687 0  0.867375468351841 0.3502978503657798 0  0.8502978503657798 0.367375468351841 0  0.8354032268212687 0.3863870506537689 0  0.822908794869358 0.4070553655912464 0  0.8129967514629171 0.4290790225914929 0  0.8058116365147896 0.4521368671424885 0  0.8014582251803892 0.4758926639489354 0  0.8 0.4999999999999999 0  0.8014582251803892 0.5241073360510646 0  0.8058116365147896 0.5478631328575115 0  0.8129967514629171 0.5709209774085071 0  0.8229087948693581 0.5929446344087538 0  0.8354032268212688 0.6136129493462312 0  0.8502978503657798 0.632624531648159 0  0.867375468351841 0.6497021496342202 0  0.8863870506537689 0.6645967731787313 0  0.9070553655912463 0.677091205130642 0  0.9290790225914929 0.6870032485370829 0  0.9521368671424885 0.6941883634852104 0  0.9758926639489354 0.6985417748196108 0  1 0.7 0  1 1 0  0.95 1 0  0.9485417748196108 0.9758926639489353 0  0.9441883634852104 0.9521368671424885 0  0.9370032485370829 0.9290790225914928 0  0.927091205130642 0.9070553655912463 0  0.9145967731787312 0.8863870506537688 0  0.8997021496342201 0.8673754683518409 0  0.882624531648159 0.8502978503657798 0  0.863612949346231 0.8354032268212686 0  0.8429446344087537 0.822908794869358 0  0.8209209774085071 0.8129967514629171 0  0.7978631328575114 0.8058116365147896 0  0.7741073360510646 0.8014582251803892 0  0.75 0.8 0  0.7258926639489353 0.8014582251803892 0  0.7021368671424885 0.8058116365147896 0  0.6790790225914928 0.8129967514629171 0  0.6570553655912461 0.8229087948693581 0  0.6363870506537688 0.8354032268212688 0  0.617375468351841 0.8502978503657798 0  0.6002978503657798 0.867375468351841 0  0.5854032268212687 0.8863870506537689 0  0.572908794869358 0.9070553655912463 0  0.5629967514629171 0.9290790225914929 0  0.5558116365147896 0.9521368671424885 0  0.5514582251803892 0.9758926639489355 0  0.55 0.9999999999999999 0  0.45 0.9999999999999999 0  0.4485417748196108 0.9758926639489353 0  0.4441883634852104 0.9521368671424885 0  0.4370032485370829 0.9290790225914928 0  0.427091205130642 0.9070553655912463 0  0.4145967731787313 0.8863870506537688 0  0.3997021496342201 0.8673754683518409 0  0.382624531648159 0.8502978503657798 0  0.363612949346231 0.8354032268212686 0  0.3429446344087536 0.822908794869358 0  0.3209209774085071 0.8129967514629171 0  0.2978631328575115 0.8058116365147896 0  0.2741073360510646 0.8014582251803892 0  0.25 0.8 0  0.2258926639489353 0.8014582251803892 0  0.2021368671424885 0.8058116365147896 0  0.1790790225914928 0.8129967514629171 0  0.1570553655912462 0.8229087948693581 0  0.1363870506537688 0.8354032268212688 0  0.117375468351841 0.8502978503657798 0  0.1002978503657797 0.867375468351841 0  0.08540322682126869 0.8863870506537689 0  0.07290879486935797 0.9070553655912463 0  0.06299675146291703 0.9290790225914929 0  0.05581163651478957 0.9521368671424885 0  0.0514582251803892 0.9758926639489355 0  0.04999999999999999 0.9999999999999999 0  0 1 0  -0 0.7000000000000001 0  0.0241073360510646 0.6985417748196108 0  0.04786313285751161 0.6941883634852104 0  0.07092097740850711 0.6870032485370829 0  0.09294463440875372 0.677091205130642 0  0.1136129493462312 0.6645967731787312 0  0.1326245316481591 0.6497021496342202 0  0.1497021496342202 0.632624531648159 0  0.1645967731787313 0.6136129493462312 0  0.177091205130642 0.5929446344087537 0  0.187003248537083 0.5709209774085071 0  0.1941883634852104 0.5478631328575115 0  0.1985417748196108 0.5241073360510646 0  0.2 0.5 0  0.1985417748196108 0.4758926639489353 0  0.1941883634852104 0.4521368671424885 0  0.1870032485370829 0.4290790225914928 0  0.177091205130642 0.4070553655912463 0  0.1645967731787313 0.3863870506537688 0  0.1497021496342202 0.3673754683518409 0  0.132624531648159 0.3502978503657798 0  0.113612949346231 0.3354032268212686 0  0.09294463440875361 0.322908794869358 0  0.07092097740850711 0.3129967514629171 0  0.04786313285751148 0.3058116365147896 0  0.02410733605106464 0.3014582251803892 0  0.6985417748196108 0.5241073360510646 0  0.7 0.5 0  0.6985417748196108 0.4758926639489353 0  0.6941883634852104 0.4521368671424885 0  0.6870032485370829 0.4290790225914928 0  0.677091205130642 0.4070553655912463 0  0.6645967731787312 0.3863870506537688 0  0.6497021496342201 0.3673754683518409 0  0.632624531648159 0.3502978503657798 0  0.613612949346231 0.3354032268212686 0  0.5929446344087537 0.322908794869358 0  0.5709209774085071 0.3129967514629171 0  0.5478631328575114 0.3058116365147896 0  0.5241073360510646 0.3014582251803892 0  0.4999999999999999 0.3 0  0.4758926639489353 0.3014582251803892 0  0.4521368671424885 0.3058116365147896 0  0.4290790225914928 0.3129967514629171 0  0.4070553655912462 0.3229087948693581 0  0.3863870506537688 0.3354032268212687 0  0.367375468351841 0.3502978503657798 0  0.3502978503657798 0.367375468351841 0  0.3354032268212687 0.3863870506537689 0  0.322908794869358 0.4070553655912464 0  0.3129967514629171 0.4290790225914929 0  0.3058116365147896 0.4521368671424885 0  0.3014582251803892 0.4758926639489354 0  0.3 0.4999999999999999 0  0.3014582251803892 0.5241073360510646 0  0.3058116365147896 0.5478631328575115 0  0.3129967514629171 0.5709209774085071 0  0.3229087948693581 0.5929446344087538 0  0.3354032268212687 0.6136129493462312 0  0.3502978503657798 0.632624531648159 0  0.367375468351841 0.6497021496342202 0  0.3863870506537689 0.6645967731787313 0  0.4070553655912463 0.677091205130642 0  0.4290790225914929 0.6870032485370829 0  0.4521368671424885 0.6941883634852104 0  0.4758926639489354 0.6985417748196108 0  0.4999999999999999 0.7 0  0.5241073360510646 0.6985417748196108 0  0.5478631328575116 0.6941883634852104 0  0.5709209774085071 0.6870032485370829 0  0.5929446344087537 0.677091205130642 0  0.6136129493462312 0.6645967731787312 0  0.6326245316481591 0.6497021496342202 0  0.6497021496342202 0.632624531648159 0  0.6645967731787312 0.6136129493462312 0  0.677091205130642 0.5929446344087537 0  0.6870032485370829 0.5709209774085071 0  0.6941883634852104 0.5478631328575115 0  0 0.15 0  1 0.15 0  1 0.85 0  0 0.8500000000000001 0  0 0.075 0  1 0.075 0  1 0.925 0  0 0.925 0  0.5 0.8127595604293815 0  0.5069440078039168 0.190422209288238 0  0.25 0.3127595604293815 0  0.756944007803917 0.3095777907117619 0  0.756944007803917 0.6904222092882382 0  0.25 0.6872404395706185 0  0 0.225 0  0.4255768646051012 0.2241073097134061 0  1 0.7749999999999999 0  0.6773391559270888 0.2766774022734219 0  1 0.225 0  0.6755768646051011 0.7241073097134062 0  0 0.7750000000000001 0  0.5818971135297744 0.2287925518358889 0  0.8318971135297746 0.728792551835889 0  0.1659156081861886 0.7301636995921477 0  0.08376842746533225 0.2299656297760495 0  0.4236002201977974 0.7746535834185855 0  0.0840843918138115 0.7698363004078523 0  0.3340843918138113 0.7301636995921477 0  0.3340843918138114 0.2698363004078523 0  0.9159156081861887 0.2301636995921477 0  0.5840843918138116 0.7698363004078522 0  0.1659156081861887 0.2698363004078523 0  0.9162315725346678 0.7700343702239506 0  0.8340843918138114 0.2698363004078523 0  0.75 0.6146645247768686 0  0.5 0.1125158665330878 0  0.75 0.3874841334669124 0  0.2504983345544904 0.6122915843562002 0  0.2504983345544902 0.3877084156437999 0  0.5 0.8879783056303169 0  0.7005361650220154 0.3333055947145943 0  0.70416808765371 0.6599554817221275 0  0.449930214263529 0.1678187287522426 0  0.2247310981387008 0.7415600637745463 0  0.5155081196221678 0.7563797802146907 0  0.2752689018612993 0.2584399362254537 0  0.05605196690611226 0.8246131191226815 0  0.9439480330938878 0.1
[...]
<PointData  Scalars="Temperature"> 
<DataArray  type="Float64"  Name="Temperature"  format="ascii">3.4340915182707789e+01  3.6452888531351846e+01  3.6444611352986108e+01  3.6404179039751817e+01  3.6289499654133316e+01  3.6106930933660628e+01  3.5856176777165956e+01  3.5535533140149823e+01  3.5148692231062441e+01  3.4691628401790013e+01  3.4153809387288348e+01  3.3541833579090316e+01  3.2872037392445677e+01  3.2157037981500849e+01  3.1409618291743655e+01  3.0653232366735832e+01  2.9899210051481177e+01  2.9156085943642378e+01  2.8449073529855340e+01  2.7773713802521414e+01  2.7156981433040414e+01  2.6608070490927872e+01  2.6130165945782366e+01  2.5746854488474405e+01  2.5450792808819813e+01  2.5246092691625275e+01  2.5110295660816956e+01  2.5039848685687481e+01  2.5017543344471104e+01  2.4654595626567531e+01  2.4626449499036255e+01  2.4539496453461975e+01  2.4383248520603644e+01  2.4160051740434998e+01  2.3863740605361954e+01  2.3511948386508845e+01  2.3129238393473123e+01  2.2728801751335638e+01  2.2333332899350030e+01  2.1961258561020582e+01  2.1624627881377720e+01  2.1330780840007769e+01  2.1081351628237780e+01  2.0873150324523127e+01  2.0701714651468649e+01  2.0564731346532188e+01  2.0455252685974724e+01  2.0370475301273760e+01  2.0306677798701422e+01  2.0259495856532769e+01  2.0225709521561711e+01  2.0201912524701768e+01  2.0185856382210357e+01  2.0175277362648391e+01  2.0169084229944506e+01  2.0166987564862946e+01  2.0164931370349532e+01  2.0236459294008505e+01  2.0247091525335485e+01  2.0277388041454270e+01  2.0324850617477981e+01  2.0385117201288015e+01  2.0453268647413559e+01  2.0521605399387777e+01  2.0584909867909293e+01  2.0634977315130207e+01  2.0668618109062749e+01  2.0679464572595826e+01  2.0671884842300823e+01  2.0647782823126796e+01  2.0612598073861736e+01  2.0572213926516522e+01  2.0526867599844746e+01  2.0477483075423851e+01  2.0425752038240820e+01  2.0370935906845190e+01  2.0315240100017260e+01  2.0262642144042598e+01  2.0213474080743101e+01  2.0171254076258567e+01  2.0136814651392935e+01  2.0111563027608206e+01  2.0096102523527943e+01  2.0090624422500106e+01  2.0033282136275787e+01  2.0033633051624626e+01  2.0034861416329985e+01  2.0038342573974941e+01  2.0044020629099560e+01  2.0052240626997126e+01  2.0063832830989519e+01  2.0079721214767222e+01  2.0101021827313140e+01  2.0129106507627416e+01  2.0165541561178440e+01  2.0211367514715530e+01  2.0266317264988221e+01  2.0331094025535531e+01  2.0403563446748528e+01  2.0484640415000676e+01  2.0570720638443653e+01  2.0660364602536561e+01  2.0747010506232307e+01  2.0827335873783355e+01  2.0892859074173131e+01  2.0940984935164952e+01  2.0963862746401094e+01  2.0966472951084693e+01  2.0950002124073716e+01  2.0923305541420689e+01  2.0900859153032730e+01  2.0891783016338444e+01  2.0958876886897311e+01  2.0985052722669941e+01  2.1055509088498898e+01  2.1167739393653335e+01  2.1322762568926116e+01  2.1524018158753911e+01  2.1767565582358884e+01  2.2053736975482376e+01  2.2372341571448832e+01  2.2721162541845828e+01  2.3080641240910698e+01  2.3434583907667680e+01  2.3765739536799167e+01  2.4051460487399147e+01  2.4280131787395128e+01  2.4436341328980170e+01  2.4519241083518725e+01  2.4526989225434523e+01  2.4461265173140220e+01  2.4337618135843652e+01  2.4162701704445634e+01  2.3949792921135341e+01  2.3720688049478049e+01  2.3497918279548074e+01  2.3304601346024128e+01  2.3172448975815247e+01  2.3118662865148611e+01  2.3119196716164840e+01  2.5241153678690218e+01  2.5248418762815554e+01  2.5272881735552968e+01  2.5312128263520922e+01  2.5366689020110805e+01  2.5438766544768018e+01  2.5535879512817914e+01  2.5670323242877220e+01  2.5850873032798237e+01  2.6082343274961168e+01  2.6381736602067594e+01  2.6743528809876800e+01  2.7166059719126320e+01  2.7632384890065989e+01  2.8134106385844564e+01  2.8664250904176566e+01  2.9225708009872076e+01  2.9826254459876765e+01  3.0471509485033931e+01  3.1144363881352305e+01  3.1826379228963880e+01  3.2484233110169761e+01  3.3091114581895759e+01  3.3612029496584000e+01  3.4004241302685500e+01  3.4254192022049608e+01  2.0645340083106600e+01  2.0685946178180025e+01  2.0742228751387856e+01  2.0816803998514033e+01  2.0914635586830723e+01  2.1043948849172448e+01  2.1213807031409857e+01  2.1431099576072473e+01  2.1706032820985691e+01  2.2035299715636381e+01  2.2424979174308064e+01  2.2876614796585876e+01  2.3382858843720719e+01  2.3939623471382145e+01  2.4535739168648945e+01  2.5160932135289965e+01  2.5793489592235229e+01  2.6420301739098257e+01  2.7004469175821441e+01  2.7533996252063265e+01  2.7962209998843967e+01  2.8277547201887156e+01  2.8449890469121868e+01  2.8483993527488231e+01  2.8365159556928109e+01  2.8123485025195958e+01  2.7773689744616899e+01  2.7348858692184290e+01  2.6880617400511003e+01  2.6389023436115998e+01  2.5892648910461475e+01  2.5383607556995578e+01  2.4881846622919173e+01  2.4386816706921984e+01  2.3904062177408807e+01  2.3445797703901949e+01  2.3010884526755522e+01  2.2616183672450678e+01  2.2259179120609438e+01  2.1947381433364846e+01  2.1675512561068555e+01  2.1443777173072561e+01  2.1246906506583993e+01  2.1084857704113453e+01  2.0949474185796486e+01  2.0838998202158091e+01  2.0751733713822013e+01  2.0686016395230816e+01  2.0640827920997030e+01  2.0615702916914167e+01  2.0608881233037003e+01  2.0619499258603636e+01  3.5547523930974656e+01  2.0201917624703643e+01  2.0058462823635828e+01  2.4119852459629403e+01  3.6190087300851403e+01  2.0176616351156792e+01  2.0040815327244562e+01  2.3446270431319945e+01  2.1400803209927648e+01  2.4542119224578226e+01  3.0024613184964835e+01  2.0931436713754085e+01  2.0431959765147841e+01  2.4795342257023492e+01  3.4795402474747988e+01  2.6196313808224474e+01  2.0078246904030269e+01  2.1641586606893039e+01  2.0223564978328913e+01  2.0654956183226457e+01  2.4837412147584523e+01  2.3111223925667655e+01  2.0245322009936803e+01  2.4959604245937481e+01  3.4204178126370984e+01  2.2182001929313824e+01  2.4852208206351602e+01  2.3490810450912839e+01  2.8364783961951471e+01  2.0308605995592217e+01  2.1021143334767974e+01  3.2310112176119972e+01  2.0114333676268942e+01  2.0566366899837195e+01  2.0507411762831218e+01  2.4772849587934839e+01  2.0843908701595002e+01  2.5699936857256024e+01  2.9201931242624067e+01  2.1144398348591046e+01  2.1246553482004241e+01  2.0582298770328912e+01  2.5591453995418274e+01  2.4517430909318694e+01  2.1460623112430412e+01  2.9815690748923988e+01  2.4385350949782243e+01  2.0241132479411423e+01  3.5083780657324773e+01  2.0076557256677606e+01  2.4914776618761262e+01  2.0472035093608419e+01  2.1166011632386432e+01  2.1699141021330590e+01  2.5306486758615304e+01  3.1090473408008890e+01  2.4327693413507763e+01  2.8788107127830187e+01  2.1070116927860397e+01  2.4818268908803010e+01  2.0743490581915214e+01  2.0582045170834260e+01  2.8419727014697234e+01  2.6710933828909756e+01  2.0922938203990693e+01  2.0989996962235526e+01  3.1109202928344597e+01  2.4069866158171109e+01  2.3676629538344844e+01  2.0389349471686323e+01  2.0654894109780685e+01  2.2254493164766608e+01  2.7071176768188181e+01  2.7662694228626645e+01  2.0776373453551692e+01  2.0909010384277796e+01  2.2214567286935122e+01  2.0343708616790806e+01  2.0802926481464127e+01  2.0657563510314233e+01  2.4834267372183586e+01  2.7587877276042747e+01  2.2763011331525867e+01  2.2922359269474807e+01  2.3956841988121905e+01  2.0170066994445929e+01  2.0169026117294020e+01  2.1752413944193790e+01  3.3465781705020852e+01  2.5060235782001108e+01  2.0365873045765213e+01  2.4745681369580822e+01  3.3179966308031553e+01  2.5141698300215403e+01  2.0251663859257004e+01  2.0440269046239852e+01  2.0097535191073387e+01  3.4335830258214443e+01  2.0208479073428101e+01  2.0056618340674806e+01  3.5684124736012556e+01  2.3965627047950832e+01  2.0718772896406673e+01  2.0327801180766453e+01  2.4168182125319138e+01  2.0540143151569143e+01  2.0918945085540148e+01  2.3680288397371683e+01  3.2141429702861494e+01  2.0311612998329920e+01  2.8007058962652287e+01  2.5325562255084439e+01  2.4521654845809920e+01  3.4493693433208954e+01  2.0110812588185581e+01  2.5684023679989362e+01  3.0126656200227277e+01  2.1164047589559370e+01  2.0254386574197891e+01  2.9252901007699467e+01  2.5014496975639943e+01  2.1576354544654503e+01  2.1714402030934465e+01  2.2195960608203816e+01  2.5804748400159696e+01  2.0748602034572738e+01  2.6668125987230418e+01  2.0618580167491231e+01  2.1388817823094502e+01  2.2136985753159539e+01  2.3101568983595644e+01  2.1241277082340343e+01  2.0261382870744114e+01  2.2793294691791626e+01  2.4602670296777781e+01  2.8714045883634814e+01  2.3514642122718453e+01  3.2108148397492961e+01  2.0512531155435230e+01  2.1127883173320470e+01  2.5280841899613236e+01  3.4758492439376141e+01  2.0603651412538941e+01  2.0247223812990836e+01  2.4739758402083133e+01  2.1253493510889477e+01  2.4487341378410616e+01  2.0213721665865105e+01  2.0724648233434259e+01  2.0074753606084460e+01  2.5343252671672239e+01  2.0967398768919264e+01  2.1052239272633031e+01  2.4908110185249502e+01  3.5170273632370076e+01  2.0508076445387207e+01  2.0579022497395474e+01  2.0464809222512542e+01  2.6284328674787190e+01  2.9382977395775995e+01  2.5152337466820430e+01  2.8709784881656464e+01  2.5175876077129537e+01  2.5061452955369226e+01  2.4543551093130777e+01  2.0728187466876086e+01  2.0886158375790231e+01  2.1020193051222972e+01  2.0999863526654327e+01  2.1177431090991131e+01  2.0068594142396329e+01  2.5118336801207327e+01  2.0048992884640366e+01  2.0230858186058640e+01  3.4482272774248578e+01  2.0167986538120708e+01  3.6384555052926565e+01  2.0188782591937546e+01  2.0188015742302831e+01  3.5898912286824029e+01  2.0035270706909834e+01  2.3211415290006620e+01  2.0086625040875944e+01  2.3763198995949256e+01  2.3625679284883471e+01  2.8594174382736750e+01  2.6038707903677686e+01  2.4890693602376523e+01  2.9101043955527764e+01  2.1415838322551274e+01  2.0127791352180505e+01  2.4000426697840506e+01  3.0966995306433063e+01  2.0381428066019350e+01  2.0436924758135554e+01  2.1772148075410147e+01  2.0084125032915018e+01  2.1218439577000975e+01  2.4229848894456005e+01  2.5276200410706284e+01  2.9915381956649309e+01  3.3137377688472320e+01  2.2657219838620193e+01  2.4226916403843997e+01  2.0930666986238581e+01  2.0816318958772023e+01  2.1352014194343727e+01  2.0638630105896155e+01  2.0679844711984956e+01  2.0046128452578710e+01  3.6018620356441438e+01  3.3883361987300404e+01  2.0317510477645261e+01  2.4355227299767883e+01  3.0845296698473984e+01  2.0444409635800017e+01  2.3634054897295343e+01  2.0555491351981413e+01  2.0298624209407574e+01  2.1275002701071188e+01  2.6908635317810020e+01  2.0773405806638539e+01  2.2470674723614199e+01  3.6286531963898312e+01  2.0176102780542386e+01  2.0038263317704182e+01  2.3326461118959994e+01  2.2547001135247573e+01  2.0591408395942857e+01  2.5548634003021910e+01  2.4155277722806662e+01  2.4307613582863627e+01  2.0240358602248985e+01  2.0214506273895196e+01  2.3062189587800749e+01  3.4998560362865398e+01  3.4662885747814116e+01  3.5316557107465407e+01  2.6152178697557744e+01  2.5867660146952954e+01  3.3895654525755901e+01  2.1639508199796719e+01  2.5325540627241782e+01  2.4573913306822579e+01  2.0390476453623759e+01  2.1461517319492739e+01  2.0958901628917769e+01  2.7362016822652709e+01  2.0868211305587455e+01  2.0064962908433291e+01  2.0627780253661729e+01  2.0509466336643811e+01  2.3222572735034330e+01  2.0928545636705426e+01  2.0568780062849473e+01  2.4937058880744772e+01  2.4724338808876148e+01  2.0673828714040788e+01  2.0759661789666207e+01  2.7917371218166991e+01  2.8349002024905356e+01  2.1397329885149947e+01  2.0200784365599581e+01  2.0999029023199792e+01  2.2152905353819474e+01  2.9061666406654570e+01  2.3240088832623663e+01  3.1587138182762821e+01  2.3947184270992992e+01  2.4271989274470599e+01  2.4811751885412296e+01  2.9570391878068818e+01  3.0287972716375808e+01  2.4550104870008941e+01  2.1041110584955266e+01  2.0993663855660298e+01  2.9371197909096161e+01  2.5136542950859948e+01  2.8531841141958051e+01  3.1429298008538201e+01  2.4172990025580773e+01  2.5615700158803055e+01  2.1215446270586213e+01  2.0636936933076683e+01  2.0604817202114045e+01  2.7162086819712410e+01  2.7214139715185169e+01  3.2851119509541533e+01  2.0566334026838216e+01  2.0513183034450993e+01  2.0458260537243557e+01  2.6449974436113809e+01  2.0694657958901690e+01  2.1453024550959118e+01  2.6459575385634736e+01  2.1632877359765466e+01  2.1899631138464748e+01  2.1099652530835691e+01  2.4860803371955065e+01  2.4730637525694839e+01  2.1305773589460173e+01  2.1860987270262005e+01  2.0092307870952531e+01  3.3855520886652407e+01  2.0635218831531141e+01  2.3728341766889411e+01  2.0186208361811492e+01  2.0143371929326790e+01  2.0774247619519087e+01  2.0605592911747781e+01  2.0497649423719004e+01  2.4611216067374702e+01  2.7347382692486196e+01  2.7779146334421149e+01  2.0810644007437155e+01  2.0887595633104706e+01  2.2671960064760025e+01  2.3218750833085210e+01  2.4540369177412259e+01  2.2676946183158403e+01  2.0374725280599019e+01  2.0545097780588200e+01  2.0277747487548343e+01  2.4603571235910302e+01  2.3654071689815652e+01  2.0033448294807521e+01  2.0165902881448190e+01  3.6449410687902805e+01  2.3118374985535830e+01  2.5043482026085691e+01  2.2623782930368105e+01  2.7804378353871293e+01  2.1922258834626227e+01  2.0700485348243998e+01  2.0440411363039594e+01  2.4617367773615506e+01  2.5021877567320683e+01  2.8851398431359765e+01  2.0744445143101711e+01  2.0212765773275727e+01  2.0186068593613093e+01  2.0145482408211862e+01  2.0215418085586425e+01  2.1017330391822004e+01  2.8156883893585981e+01  2.6035302867245147e+01  2.0939606838059735e+01  2.0900072528359740e+01  2.1063849164192437e+01  2.0879617143967074e+01  2.0541737338311165e+01  2.6785897871167965e+01  2.6482757884416475e+01  3.2644528231614380e+01  2.8502738148859830e+01  2.2520239908920274e+01  3.3699497725304866e+01  2.5101503707964849e+01  2.3147864554568450e+01  2.0797922603565318e+01  3.4626213270002005e+01  2.5759624006025430e+01  2.0378269804203661e+01  2.0403521634308611e+01  2.0088064934314279e+01  2.4742753706143951e+01  3.1786842761217482e+01  2.3773630731122971e+01  2.4787031924829424e+01  2.4952790852715680e+01  2.4875104671414391e+01  2.7841277884688800e+01  2.0700293649508318e+01  3.5361360621908794e+01  2.0132098548867436e+01  2.8833905007668452e+01  2.2042200664313917e+01  2.4666333495163506e+01  2.0223956133150860e+01  2.0449931221948411e+01  2.1534591626885568e+01  2.8215038143295512e+01  2.0941141237189708e+01  3.0769866923356116e+01  2.0698698623125878e+01  2.0084791702118519e+01  2.5270349076570714e+01  2.1960799709542201e+01  2.8250785444145883e+01  2.0346103115232850e+01  2.4799413141103958e+01  2.0169446273021538e+01  2.3183872397678819e+01  3.6401695531814006e+01  2.0034848052316512e+01  2.4258140072058005e+01  2.0839999383601597e+01  2.0158317943898371e+01  2.0516121622944819e+01  2.5149537399506556e+01  2.1796759872569087e+01  2.0299440760818936e+01  2.1000523283678952e+01  3.4114468643400251e+01  2.5449731241210749e+01  2.5035212075019075e+01  2.4638497181278584e+01  2.0678060155397592e+01  2.2858582048571744e+01  2.3316658591900339e+01  2.5209075509390590e+01  2.0258398383702044e+01  2.4892089628872885e+01  2.0698854501786752e+01  2.4107790586268472e+01  3.0243142897877206e+01  2.5650064458991178e+01  2.0311627730292500e+01  3.0512070549421132e+01  2.1567164677742412e+01  2.0284221734066850e+01  2.0403245577108613e+01  2.0392701758407252e+01  2.1095630371079629e+01  2.1088872209241323e+01  2.0098797078970350e+01  2.4451724204459673e+01  3.1664464836358693e+01  2.3636265458584585e+01  2.1284215161909881e+01  2.0605151160898775e+01  2.5561690031558893e+01  2.4681838361842917e+01  2.0074307410908261e+01  2.9655621340025760e+01  2.4629847062006579e+01  2.4711663903510836e+01  2.0947324753421842e+01  2.4960121584498541e+01  2.4189957918982806e+01  3.2505955351227314e+01  2.0281061284453735e+01  2.4362716586880165e+01  2.5014355553649011e+01  2.0271349743719256e+01  2.0227807139119264e+01  2.0233656740792579e+01  2.0092329749091935e+01  3.5047531511987188e+01  2.2508931576904430e+01  2.9921646966868042e+01  2.1057392219286029e+01  2.4422266073017592e+01  2.3504838587401252e+01  2.2292407332131386e+01  2.5432319268455437e+01  2.8860898469111838e+01  3.0543922662901000e+01  2.0424087838877071e+01  2.3790746894115752e+01  2.0210282227164448e+01  2.0237451466470176e+01  2.5407342934616356e+01  2.2018585888536229e+01  3.3391477779865127e+01  2.0350287096105220e+01  3.2788383349819618e+01  3.3287828927808100e+01  2.0109420359584508e+01  2.0092626509274069e+01  3.4351082094294554e+01  3.4456603854024067e+01  2.7271337884649611e+01  2.1944411836766861e+01  2.0850214844995154e+01  2.0764398413453570e+01  2.2012301500792855e+01  2.1614409250506281e+01  2.0985564630471998e+01  2.0067394640388137e+01  2.1065497623958628e+01  2.2457432901189190e+01  2.8855754025975049e+01  2.8059874437489530e+01  2.0690188789138737e+01  2.0703830197970401e+01  2.0975930058745149e+01  2.1884973429295083e+01  2.0520475966041641e+01  2.8568512256951827e+01  2.5304667451405155e+01  2.4534921404095446e+01  2.5870478566877260e+01  2.5598398210427987e+01  2.9687965369311680e+01  2.0053581183733801e+01  3.5728607795708506e+01  3.5568027001548849e+01  3.5576798722269487e+01  2.0064357447933642e+01  2.0052083718973357e+01  2.0236827089527324e+01  2.4419320815224747e+01  2.0319625731924067e+01  2.6313702983676126e+01  2.0456837314851690e+01  2.0223834053372062e+01  2.0205084827484907e+01  2.4185864616648221e+01  2.3939315415423049e+01  2.4074015988822044e+01  2.0948831107119805e+01  3.5850942621651441e+01  2.3807905899311532e+01  2.0193913484070908e+01  2.0126328196743628e+01  2.3957187076462198e+01  2.1314374238981081e+01  2.3423001954287379e+01  2.9448131020345553e+01  2.5361352069301219e+01  2.0234325084470132e+01  2.5207022186785526e+01  2.0621667262270485e+01  2.0355379419984708e+01  2.0376769004872259e+01  2.0274193292498513e+01  3.1427005540569809e+01  2.1303167138509060e+01  3.4334335330420579e+01  2.0301674155077553e+01  2.4469770995673137e+01  2.0339680741555160e+01  2.5954829723216665e+01  2.3971404969129509e+01  2.0057169478387099e+01  2.1514683472572877e+01  3.4157862566534888e+01  2.0438530541347191e+01  2.0165520647579942e+01  2.0790572972937483e+01  2.8172028358387443e+01  2.3825021948859227e+01  2.0634769568671988e+01  2.1573891968214113e+01  2.1151536137011913e+01  2.0964108394932580e+01  3.1659224926796220e+01  2.7549545811234236e+01  2.3274546771267357e+01  2.1111067783445591e+01  2.0504606214017507e+01  2.0850646031457096e+01  2.1153802364637983e+01  2.1190335717033697e+01  2.4516910971220028e+01  2.5417934526794010e+01  2.3586045728226271e+01  2.0238731875096846e+01  2.5168984688054540e+01  2.0338771727913187e+01  2.9687531638887421e+01  2.4980365718208933e+01  2.5072131109738304e+01  2.4975289188276673e+01  2.5499387968377231e+01  2.0624345561100416e+01  2.2351901951850607e+01  2.0578388745690667e+01  2.0583213567920019e+01  2.0511425491832458e+01  2.1439019485364110e+01  2.0102748323698538e+01  2.0271306462597973e+01  2.1769506047086168e+01  3.4351065971641752e+01  3.4820317202318506e+01  3.2668317263869156e+01  2.1529119809071869e+01  2.3964988258808333e+01  2.3638802643606173e+01  2.0669285611061973e+01  2.0874133929871157e+01  3.1960051891963619e+01  2.7816846049758297e+01  2.0113323248311609e+01  2.5347632708185483e+01  2.5996561100587307e+01  2.0494185826532512e+01  3.1321228229486685e+01  2.0802060581990084e+01  2.6334462552500117e+01  2.0709796342729955e+01  2.6583454485954707e+01  2.2128742792454158e+01  2.2286502378216106e+01  2.0988670093517552e+01  2.8769214003760023e+01  2.1152777461417191e+01  2.0615747531697743e+01  2.1017700830781820e+01  2.0927313272992375e+01  2.8405053137804078e+01  2.1221250402106477e+01  2.1616002792086366e+01  2.7076543477004588e+01  2.1790291582844173e+01  2.0622357010549393e+01  2.5954759196031034e+01  2.0050619052792793e+01  3.5796812269689426e+01  2.554