<?xml version="1.0"?>
<VTKFile type="UnstructuredGrid"  version="0.1"  >
<UnstructuredGrid>
<Piece  NumberOfPoints="2331" NumberOfCells="4248">
<Points>
<DataArray  type="Float64"  NumberOfComponents="3"  format="ascii">0 0.3 0  0 0 0  0.04999999999999999 0 0  0.0514582251803892 0.02410733605106462 0  0.0558116365147896 0.04786313285751154 0  0.06299675146291706 0.07092097740850717 0  0.07290879486935808 0.09294463440875382 0  0.08540322682126872 0.1136129493462312 0  0.1002978503657798 0.132624531648159 0  0.117375468351841 0.1497021496342203 0  0.1363870506537689 0.1645967731787313 0  0.1570553655912463 0.177091205130642 0  0.1790790225914929 0.187003248537083 0  0.2021368671424885 0.1941883634852104 0  0.2258926639489354 0.1985417748196108 0  0.25 0.2 0  0.2741073360510646 0.1985417748196108 0  0.2978631328575116 0.1941883634852104 0  0.3209209774085071 0.187003248537083 0  0.3429446344087537 0.177091205130642 0  0.3636129493462312 0.1645967731787313 0  0.3826245316481591 0.1497021496342202 0  0.3997021496342202 0.132624531648159 0  0.4145967731787313 0.1136129493462312 0  0.427091205130642 0.09294463440875371 0  0.4370032485370829 0.07092097740850713 0  0.4441883634852104 0.04786313285751155 0  0.4485417748196108 0.02410733605106461 0  0.45 0 0  0.55 0 0  0.5514582251803892 0.02410733605106462 0  0.5558116365147896 0.04786313285751154 0  0.5629967514629171 0.07092097740850717 0  0.5729087948693581 0.09294463440875382 0  0.5854032268212688 0.1136129493462312 0  0.6002978503657798 0.132624531648159 0  0.617375468351841 0.1497021496342203 0  0.6363870506537689 0.1645967731787313 0  0.6570553655912463 0.177091205130642 0  0.6790790225914929 0.187003248537083 0  0.7021368671424885 0.1941883634852104 0  0.7258926639489354 0.1985417748196108 0  0.75 0.2 0  0.7741073360510646 0.1985417748196108 0  0.7978631328575116 0.1941883634852104 0  0.8209209774085071 0.187003248537083 0  0.8429446344087537 0.177091205130642 0  0.8636129493462312 0.1645967731787313 0  0.8826245316481591 0.1497021496342202 0  0.8997021496342202 0.132624531648159 0  0.9145967731787312 0.1136129493462312 0  0.927091205130642 0.09294463440875371 0  0.9370032485370829 0.07092097740850713 0  0.9441883634852104 0.04786313285751155 0  0.9485417748196108 0.02410733605106461 0  0.95 0 0  1 0 0  1 0.3 0  0.9758926639489353 0.3014582251803892 0  0.9521368671424885 0.3058116365147896 0  0.9290790225914928 0.3129967514629171 0  0.9070553655912461 0.3229087948693581 0  0.8863870506537688 0.3354032268212687 0  0.867375468351841 0.3502978503657798 0  0.8502978503657798 0.367375468351841 0  0.8354032268212687 0.3863870506537689 0  0.822908794869358 0.4070553655912464 0  0.8129967514629171 0.4290790225914929 0  0.8058116365147896 0.4521368671424885 0  0.8014582251803892 0.4758926639489354 0  0.8 0.4999999999999999 0  0.8014582251803892 0.5241073360510646 0  0.8058116365147896 0.5478631328575115 0  0.8129967514629171 0.5709209774085071 0  0.8229087948693581 0.5929446344087538 0  0.8354032268212688 0.6136129493462312 0  0.8502978503657798 0.632624531648159 0  0.867375468351841 0.6497021496342202 0  0.8863870506537689 0.6645967731787313 0  0.9070553655912463 0.677091205130642 0  0.9290790225914929 0.6870032485370829 0  0.9521368671424885 0.6941883634852104 0  0.9758926639489354 0.6985417748196108 0  1 0.7 0  1 1 0  0.95 1 0  0.9485417748196108 0.9758926639489353 0  0.9441883634852104 0.9521368671424885 0  0.9370032485370829 0.9290790225914928 0  0.927091205130642 0.9070553655912463 0  0.9145967731787312 0.8863870506537688 0  0.8997021496342201 0.8673754683518409 0  0.882624531648159 0.8502978503657798 0  0.863612949346231 0.8354032268212686 0  0.8429446344087537 0.822908794869358 0  0.8209209774085071 0.8129967514629171 0  0.7978631328575114 0.8058116365147896 0  0.7741073360510646 0.8014582251803892 0  0.75 0.8 0  0.7258926639489353 0.8014582251803892 0  0.7021368671424885 0.8058116365147896 0  0.6790790225914928 0.8129967514629171 0  0.6570553655912461 0.8229087948693581 0  0.6363870506537688 0.8354032268212688 0  0.617375468351841 0.8502978503657798 0  0.6002978503657798 0.867375468351841 0  0.5854032268212687 0.8863870506537689 0  0.572908794869358 0.9070553655912463 0  0.5629967514629171 0.9290790225914929 0  0.5558116365147896 0.9521368671424885 0  0.5514582251803892 0.9758926639489355 0  0.55 0.9999999999999999 0  0.45 0.9999999999999999 0  0.4485417748196108 0.9758926639489353 0  0.4441883634852104 0.9521368671424885 0  0.4370032485370829 0.9290790225914928 0  0.427091205130642 0.9070553655912463 0  0.4145967731787313 0.8863870506537688 0  0.3997021496342201 0.8673754683518409 0  0.382624531648159 0.8502978503657798 0  0.363612949346231 0.8354032268212686 0  0.3429446344087536 0.822908794869358 0  0.3209209774085071 0.8129967514629171 0  0.2978631328575115 0.8058116365147896 0  0.2741073360510646 0.8014582251803892 0  0.25 0.8 0  0.2258926639489353 0.8014582251803892 0  0.2021368671424885 0.8058116365147896 0  0.1790790225914928 0.8129967514629171 0  0.1570553655912462 0.8229087948693581 0  0.1363870506537688 0.8354032268212688 0  0.117375468351841 0.8502978503657798 0  0.1002978503657797 0.867375468351841 0  0.08540322682126869 0.8863870506537689 0  0.07290879486935797 0.9070553655912463 0  0.06299675146291703 0.9290790225914929 0  0.05581163651478957 0.9521368671424885 0  0.0514582251803892 0.9758926639489355 0  0.04999999999999999 0.9999999999999999 0  0 1 0  -0 0.7000000000000001 0  0.0241073360510646 0.6985417748196108 0  0.04786313285751161 0.6941883634852104 0  0.07092097740850711 0.6870032485370829 0  0.09294463440875372 0.677091205130642 0  0.1136129493462312 0.6645967731787312 0  0.1326245316481591 0.6497021496342202 0  0.1497021496342202 0.632624531648159 0  0.1645967731787313 0.6136129493462312 0  0.177091205130642 0.5929446344087537 0  0.187003248537083 0.5709209774085071 0  0.1941883634852104 0.5478631328575115 0  0.1985417748196108 0.5241073360510646 0  0.2 0.5 0  0.1985417748196108 0.4758926639489353 0  0.1941883634852104 0.4521368671424885 0  0.1870032485370829 0.4290790225914928 0  0.177091205130642 0.4070553655912463 0  0.1645967731787313 0.3863870506537688 0  0.1497021496342202 0.3673754683518409 0  0.132624531648159 0.3502978503657798 0  0.113612949346231 0.3354032268212686 0  0.09294463440875361 0.322908794869358 0  0.07092097740850711 0.3129967514629171 0  0.04786313285751148 0.3058116365147896 0  0.02410733605106464 0.3014582251803892 0  0.6985417748196108 0.5241073360510646 0  0.7 0.5 0  0.6985417748196108 0.4758926639489353 0  0.6941883634852104 0.4521368671424885 0  0.6870032485370829 0.4290790225914928 0  0.677091205130642 0.4070553655912463 0  0.6645967731787312 0.3863870506537688 0  0.6497021496342201 0.3673754683518409 0  0.632624531648159 0.3502978503657798 0  0.613612949346231 0.3354032268212686 0  0.5929446344087537 0.322908794869358 0  0.5709209774085071 0.3129967514629171 0  0.5478631328575114 0.3058116365147896 0  0.5241073360510646 0.3014582251803892 0  0.4999999999999999 0.3 0  0.4758926639489353 0.3014582251803892 0  0.4521368671424885 0.3058116365147896 0  0.4290790225914928 0.3129967514629171 0  0.4070553655912462 0.3229087948693581 0  0.3863870506537688 0.3354032268212687 0  0.367375468351841 0.3502978503657798 0  0.3502978503657798 0.367375468351841 0  0.3354032268212687 0.3863870506537689 0  0.322908794869358 0.4070553655912464 0  0.3129967514629171 0.4290790225914929 0  0.3058116365147896 0.4521368671424885 0  0.3014582251803892 0.4758926639489354 0  0.3 0.4999999999999999 0  0.3014582251803892 0.5241073360510646 0  0.3058116365147896 0.5478631328575115 0  0.3129967514629171 0.5709209774085071 0  0.3229087948693581 0.5929446344087538 0  0.3354032268212687 0.6136129493462312 0  0.3502978503657798 0.632624531648159 0  0.367375468351841 0.6497021496342202 0  0.3863870506537689 0.6645967731787313 0  0.4070553655912463 0.677091205130642 0  0.4290790225914929 0.6870032485370829 0  0.4521368671424885 0.6941883634852104 0  0.4758926639489354 0.6985417748196108 0  0.4999999999999999 0.7 0  0.5241073360510646 0.6985417748196108 0  0.5478631328575116 0.6941883634852104 0  0.5709209774085071 0.6870032485370829 0  0.5929446344087537 0.677091205130642 0  0.6136129493462312 0.6645967731787312 0  0.6326245316481591 0.6497021496342202 0  0.6497021496342202 0.632624531648159 0  0.6645967731787312 0.6136129493462312 0  0.677091205130642 0.5929446344087537 0  0.6870032485370829 0.5709209774085071 0  0.6941883634852104 0.5478631328575115 0  0 0.15 0  1 0.15 0  1 0.85 0  0 0.8500000000000001 0  0 0.075 0  1 0.075 0  1 0.925 0  0 0.925 0  0.5 0.8127595604293815 0  0.5069440078039168 0.190422209288238 0  0.25 0.3127595604293815 0  0.756944007803917 0.3095777907117619 0  0.756944007803917 0.6904222092882382 0  0.25 0.6872404395706185 0  0 0.225 0  0.4255768646051012 0.2241073097134061 0  1 0.7749999999999999 0  0.6773391559270888 0.2766774022734219 0  1 0.225 0  0.6755768646051011 0.7241073097134062 0  0 0.7750000000000001 0  0.5818971135297744 0.2287925518358889 0  0.8318971135297746 0.728792551835889 0  0.1659156081861886 0.7301636995921477 0  0.08376842746533225 0.2299656297760495 0  0.4236002201977974 0.7746535834185855 0  0.0840843918138115 0.7698363004078523 0  0.3340843918138113 0.7301636995921477 0  0.3340843918138114 0.2698363004078523 0  0.9159156081861887 0.2301636995921477 0  0.5840843918138116 0.7698363004078522 0  0.1659156081861887 0.2698363004078523 0  0.9162315725346678 0.7700343702239506 0  0.8340843918138114 0.2698363004078523 0  0.75 0.6146645247768686 0  0.5 0.1125158665330878 0  0.75 0.3874841334669124 0  0.2504983345544904 0.6122915843562002 0  0.2504983345544902 0.3877084156437999 0  0.5 0.8879783056303169 0  0.7005361650220154 0.3333055947145943 0  0.70416808765371 0.6599554817221275 0  0.449930214263529 0.1678187287522426 0  0.2247310981387008 0.7415600637745463 0  0.5155081196221678 0.7563797802146907 0  0.2752689018612993 0.2584399362254537 0  0.05605196690611226 0.8246131191226815 0  0.9439480330938878 0.1
[...]
<PointData  Scalars="Temperature"> 
<DataArray  type="Float64"  Name="Temperature"  format="ascii">3.1270354758613728e+01  3.2948488471751389e+01  3.2940908499616114e+01  3.2910095622916550e+01  3.2822374831214333e+01  3.2681901614023545e+01  3.2487743687056032e+01  3.2237747892944462e+01  3.1934920558566713e+01  3.1576432489722279e+01  3.1154518534620571e+01  3.0674502226224341e+01  3.0148941630035413e+01  2.9587301794758368e+01  2.8998915632069910e+01  2.8402534250024225e+01  2.7807795356111452e+01  2.7222236068320559e+01  2.6666870027397977e+01  2.6138040540306811e+01  2.5656436180957535e+01  2.5228246268947515e+01  2.4853495985210355e+01  2.4550729083086388e+01  2.4314005876769691e+01  2.4148474220805234e+01  2.4036330928005487e+01  2.3977415465265956e+01  2.3958407936011398e+01  2.3618252542028500e+01  2.3594232841162416e+01  2.3520409535596436e+01  2.3389406089976813e+01  2.3205557909097692e+01  2.2965482162805127e+01  2.2685053187880680e+01  2.2384991724177208e+01  2.2074491622141103e+01  2.1770741136585364e+01  2.1486789609689918e+01  2.1230742705208524e+01  2.1007514806076685e+01  2.0818071093743495e+01  2.0659929388300469e+01  2.0529747006852169e+01  2.0425837822694948e+01  2.0342919350049431e+01  2.0278838502045886e+01  2.0230617350771901e+01  2.0195059789005480e+01  2.0169701827396477e+01  2.0151993303792612e+01  2.0140198679750632e+01  2.0132510035448107e+01  2.0128062542698611e+01  2.0126570390834715e+01  2.0124567485559208e+01  2.0166866816664452e+01  2.0175106646477364e+01  2.0198387167828962e+01  2.0234570113904880e+01  2.0280303544236908e+01  2.0332059449791725e+01  2.0384242623072740e+01  2.0433389037846705e+01  2.0473301717119085e+01  2.0501598558264106e+01  2.0512910408271473e+01  2.0510221525608959e+01  2.0494288138266644e+01  2.0468940108440936e+01  2.0438742102879242e+01  2.0403514300327448e+01  2.0364344914780883e+01  2.0323003331478567e+01  2.0279312775805064e+01  2.0235309394287192e+01  2.0194335697078081e+01  2.0156500610187699e+01  2.0124408212926841e+01  2.0098420307742341e+01  2.0079415703509387e+01  2.0067744864290454e+01  2.0063582734760285e+01  2.0023535228655195e+01  2.0023862106486071e+01  2.0024759341518937e+01  2.0027289618238036e+01  2.0031409546463731e+01  2.0037372058911327e+01  2.0045827274771028e+01  2.0057483286071552e+01  2.0073173925213794e+01  2.0093965823927924e+01  2.0121100179386552e+01  2.0155478988645140e+01  2.0197023801462514e+01  2.0246336995428830e+01  2.0301783459019777e+01  2.0363935544808722e+01  2.0429721812871115e+01  2.0498038356828523e+01  2.0563392854235410e+01  2.0623520481095028e+01  2.0672036987276783e+01  2.0707156640045500e+01  2.0722902188338452e+01  2.0723373137698520e+01  2.0709234128291836e+01  2.0687180979211107e+01  2.0668702132757222e+01  2.0661194932604911e+01  2.0721023372372937e+01  2.0742549843517430e+01  2.0799823151363992e+01  2.0890051551839530e+01  2.1013169074509133e+01  2.1171339993456993e+01  2.1361178362247845e+01  2.1582860614413367e+01  2.1828769941727884e+01  2.2097790977404376e+01  2.2375539030203800e+01  2.2650514110054715e+01  2.2909487378052109e+01  2.3135121842858176e+01  2.3317548697558255e+01  2.3443574684713639e+01  2.3511162509233433e+01  2.3518134899384282e+01  2.3464666492677008e+01  2.3363425149260092e+01  2.3219267029154008e+01  2.3043124736952361e+01  2.2852813294788589e+01  2.2666833444038520e+01  2.2504342281923275e+01  2.2392256297148737e+01  2.2346237609232517e+01  2.2346960303094534e+01  2.4177847215782954e+01  2.4183032914240904e+01  2.4201381568279125e+01  2.4231220919730752e+01  2.4273221874312718e+01  2.4329044452608123e+01  2.4404113322107438e+01  2.4507749738573487e+01  2.4645343151759768e+01  2.4819838957920016e+01  2.5045723361757911e+01  2.5318696594537684e+01  2.5639058223756173e+01  2.5995055674330874e+01  2.6381931406564178e+01  2.6795635555832014e+01  2.7238561454041154e+01  2.7715706331985498e+01  2.8229114341364816e+01  2.8763518349325945e+01  2.9302705695257210e+01  2.9820397267167397e+01  3.0295988586784418e+01  3.0702789433202668e+01  3.1008473363878480e+01  3.1203025943225523e+01  2.0506667103459183e+01  2.0536797939346993e+01  2.0579333003787514e+01  2.0636223854966644e+01  2.0711310934862961e+01  2.0810567439127070e+01  2.0940536674485003e+01  2.1106351013306270e+01  2.1315710455741083e+01  2.1566548381539615e+01  2.1864502458556995e+01  2.2211492877380515e+01  2.2602813185816085e+01  2.3035628638915977e+01  2.3500891736115832e+01  2.3989505390725306e+01  2.4483554988210155e+01  2.4972194682171171e+01  2.5425404651657594e+01  2.5835813266047140e+01  2.6167418649247157e+01  2.6412595945397250e+01  2.6548158371930064e+01  2.6579924056471270e+01  2.6494225182121973e+01  2.6315155077245507e+01  2.6051907598272852e+01  2.5729585334405062e+01  2.5371155211437749e+01  2.4990739603484304e+01  2.4603109626914719e+01  2.4202265637228610e+01  2.3805734505614190e+01  2.3414566780384622e+01  2.3034647188599777e+01  2.2676050285662971e+01  2.2337751314676325e+01  2.2032170180377911e+01  2.1756563555787366e+01  2.1516038294557511e+01  2.1306286227948195e+01  2.1127314057227462e+01  2.0975226713868086e+01  2.0850141026637814e+01  2.0745885945083614e+01  2.0660932043169758e+01  2.0593796308268921e+01  2.0543083403964378e+01  2.0507803751776230e+01  2.0487631497091137e+01  2.0481157127015770e+01  2.0488057554960459e+01  3.2250135786933505e+01  2.0148136349508416e+01  2.0041177475368599e+01  2.3196081749404733e+01  3.2748469179429712e+01  2.0132309075117526e+01  2.0028891114710682e+01  2.2625353674320635e+01  2.1077505097726643e+01  2.3527698556113322e+01  2.7862156933432662e+01  2.0706608410528698e+01  2.0329762109614933e+01  2.3756337465779229e+01  3.1647065733337520e+01  2.4847595354785089e+01  2.0054850133347710e+01  2.1253437109538865e+01  2.0159813164806554e+01  2.0505520186817161e+01  2.3817797740539607e+01  2.2384856840454034e+01  2.0181477815573356e+01  2.3901350097459819e+01  3.1185352093602415e+01  2.1688165384833642e+01  2.3819211924614731e+01  2.2706097334225351e+01  2.6546156847741539e+01  2.0226607246808189e+01  2.0786190575379667e+01  2.9694752263369633e+01  2.0082208878881215e+01  2.0422880351985665e+01  2.0393512250130591e+01  2.3730154341229301e+01  2.0645534055959224e+01  2.4480940205763090e+01  2.7189979250299771e+01  2.0869206614541838e+01  2.0957322052899254e+01  2.0455404838671399e+01  2.4395860528008040e+01  2.3523373762197053e+01  2.1133258342714278e+01  2.7718474907745094e+01  2.3417527810028805e+01  2.0177957880476033e+01  3.1884033503620287e+01  2.0054307029386443e+01  2.3810658472658496e+01  2.0357805918840196e+01  2.0884309440855535e+01  2.1309240237841209e+01  2.4193798559524051e+01  2.8720051928907111e+01  2.3371850050847208e+01  2.6848583682405614e+01  2.0814517164662373e+01  2.3772017095157995e+01  2.0572185820564105e+01  2.0452185075000582e+01  2.6576551584631723e+01  2.5265364066735980e+01  2.0689110770561211e+01  2.0744228641885901e+01  2.8746324318788140e+01  2.3162313254205579e+01  2.2825308685635122e+01  2.0295386492047506e+01  2.0489563944788966e+01  2.1717624437304373e+01  2.5510036613736446e+01  2.6022517788582125e+01  2.0593378722344838e+01  2.0707238226079888e+01  2.1697407895174660e+01  2.0257773651885174e+01  2.0605719996770478e+01  2.0508848369259454e+01  2.3786507481072789e+01  2.5936852916175059e+01  2.2135016647707605e+01  2.2265539491921352e+01  2.3052831212339154e+01  2.0124273659491006e+01  2.0123042005765253e+01  2.1356739773558953e+01  3.0596806596851621e+01  2.4012363932539248e+01  2.0267576718511286e+01  2.3714164341870358e+01  3.0386712824010406e+01  2.4070326551621378e+01  2.0180229754386080e+01  2.0328933315112657e+01  2.0069107366166769e+01  3.1277517773953242e+01  2.0155101131530575e+01  2.0040258880257568e+01  3.2355999880773481e+01  2.3061599064712471e+01  2.0541113503070534e+01  2.0246109245288903e+01  2.3220271265637749e+01  2.0416358839982660e+01  2.0697475316514666e+01  2.2858585967624219e+01  2.9554098227100692e+01  2.0232396744101230e+01  2.6224565324240881e+01  2.4222484208072675e+01  2.3525231517026732e+01  3.1419881544970494e+01  2.0080131282356817e+01  2.4494632094551985e+01  2.7947222158757732e+01  2.0886292428067875e+01  2.0188253765186023e+01  2.7223372848831012e+01  2.3926612246126997e+01  2.1196846985479610e+01  2.1317296688312286e+01  2.1694529746752934e+01  2.4507583188150754e+01  2.0586577195019924e+01  2.5255147324138679e+01  2.0469907235181452e+01  2.1064758099657020e+01  2.1658849844787330e+01  2.2382919896061381e+01  2.0946533318004597e+01  2.0193562723013816e+01  2.2129480017793657e+01  2.3589006185895336e+01  2.6857929005418338e+01  2.2718108699389145e+01  2.9543730054306451e+01  2.0378790904929936e+01  2.0878465401690121e+01  2.4121546405510742e+01  3.1621669715478347e+01  2.0453894928977192e+01  2.0179554628600613e+01  2.3727724756272124e+01  2.0964793706484304e+01  2.3512120491575274e+01  2.0154746212167456e+01  2.0544706785687076e+01  2.0053541137138364e+01  2.4211647924559394e+01  2.0739088197171753e+01  2.0812172231798609e+01  2.3836862487842673e+01  3.1950503779606571e+01  2.0391342711186258e+01  2.0455328669101181e+01  2.0357878885005309e+01  2.4953397286925384e+01  2.7353821488537591e+01  2.4025640327680328e+01  2.6768801915005927e+01  2.4109624076893802e+01  2.3984329704494741e+01  2.3530941516606429e+01  2.0553528785928389e+01  2.0685183852473404e+01  2.0768521389657700e+01  2.0751013969370462e+01  2.0896820809725348e+01  2.0048174071606496e+01  2.4067205415086832e+01  2.0034620397646581e+01  2.0163381254686399e+01  3.1388853349485522e+01  2.0126601339383171e+01  3.2896675210251338e+01  2.0140121759351317e+01  2.0140815982780296e+01  3.2524359502944328e+01  2.0024962710181008e+01  2.2426040241190083e+01  2.0060731383653327e+01  2.2893215952752843e+01  2.2775571158981844e+01  2.6690342526163349e+01  2.4730565518090355e+01  2.3839498539930329e+01  2.7126067508682684e+01  2.1086779046124587e+01  2.0091807605977731e+01  2.3099549772491109e+01  2.8644197694365442e+01  2.0285770647749288e+01  2.0333284641964802e+01  2.1378018809088449e+01  2.0059413548868594e+01  2.0943497423736915e+01  2.3264600825547234e+01  2.4151264942094986e+01  2.7769884423012602e+01  3.0346235179163088e+01  2.2035173278017375e+01  2.3272056355914980e+01  2.0704186913079621e+01  2.0617870306860549e+01  2.1053335732086040e+01  2.0497684817421529e+01  2.0535453922826175e+01  2.0032752375215605e+01  3.2615769687180439e+01  3.0938097304065266e+01  2.0237526096484295e+01  2.3395501719964201e+01  2.8526468784047491e+01  2.0329378819422775e+01  2.2795695335599298e+01  2.0434786313801432e+01  2.0216526447272255e+01  2.0984576259546834e+01  2.5421983983038260e+01  2.0600497367275189e+01  2.1914953208355598e+01  3.2821367561664523e+01  2.0132568167748023e+01  2.0027151543794538e+01  2.2523433992514228e+01  2.1964838349415107e+01  2.0464028032206773e+01  2.4321176030099839e+01  2.3217391339868165e+01  2.3355633874685374e+01  2.0179593326517047e+01  2.0156968735929205e+01  2.2363947513834383e+01  3.1817543209835993e+01  3.1550198507830931e+01  3.2067628399969998e+01  2.4858327800481899e+01  2.4603015286855506e+01  3.0928806232229380e+01  2.1264752368057266e+01  2.4231532018941301e+01  2.3562685431786647e+01  2.0292864795444991e+01  2.1119802790417634e+01  2.0725049114139924e+01  2.5806142191927648e+01  2.0680697632882250e+01  2.0046050085902742e+01  2.0495431093433940e+01  2.0393812412179265e+01  2.2461449661951011e+01  2.0692336009970866e+01  2.0421385303477539e+01  2.3881641302612739e+01  2.3684979585948799e+01  2.0516726191820002e+01  2.0590083217282896e+01  2.6174490354986947e+01  2.6540578486142948e+01  2.1063134646024945e+01  2.0146964954720950e+01  2.0753174426834285e+01  2.1634765601782128e+01  2.7115798852383758e+01  2.2514797990929040e+01  2.9119120615295518e+01  2.3068253876180727e+01  2.3315526480824950e+01  2.3772469199186297e+01  2.7539720635550211e+01  2.8085939231048709e+01  2.3554082740396396e+01  2.0796142325691516e+01  2.0749535145527631e+01  2.7327420268275390e+01  2.4053444746289564e+01  2.6623675157465346e+01  2.8989296855858772e+01  2.3246923023503928e+01  2.4454213309731816e+01  2.0930257107742836e+01  2.0497076732913481e+01  2.0465550686831861e+01  2.5595882318783577e+01  2.5663984065964527e+01  3.0111205283248605e+01  2.0432379992496227e+01  2.0387354741430432e+01  2.0349371093039984e+01  2.5006320987760382e+01  2.0526229814629094e+01  2.1122486123875113e+01  2.5035633030300250e+01  2.1256474756849663e+01  2.1467219275739076e+01  2.0839839067831001e+01  2.3758614486773432e+01  2.3673222197254773e+01  2.0989370003591276e+01  2.1417115756873855e+01  2.0065863876169704e+01  3.0919592372764821e+01  2.0473557028436257e+01  2.2860897882873370e+01  2.0136532385406309e+01  2.0104425768825504e+01  2.0583485889030410e+01  2.0451796210591024e+01  2.0374251926852988e+01  2.3593004576443182e+01  2.5704516782980161e+01  2.6064429463796962e+01  2.0613782424902816e+01  2.0678330488583782e+01  2.2073745051639715e+01  2.2464240681499327e+01  2.3531803719417088e+01  2.2044805505003062e+01  2.0277155581417475e+01  2.0424609315462309e+01  2.0204626579187238e+01  2.3603466191603044e+01  2.2813489684749833e+01  2.0023689182984498e+01  2.0125513497933824e+01  3.2945304190370344e+01  2.2346132906257772e+01  2.3939850895997910e+01  2.2015127905931099e+01  2.6110557050699231e+01  2.1481618059704299e+01  2.0537256151801902e+01  2.0324237756495549e+01  2.3591290822122161e+01  2.3955654240275599e+01  2.6914284572837193e+01  2.0561706594895163e+01  2.0156358085724719e+01  2.0136182489338815e+01  2.0105519345380173e+01  2.0158563618414810e+01  2.0795559362055180e+01  2.6428574604415765e+01  2.4772904096261943e+01  2.0702851186821462e+01  2.0668728989909244e+01  2.0804202783319514e+01  2.0678005923915901e+01  2.0416947544742950e+01  2.5341471772041547e+01  2.5071848977302611e+01  2.9954147046702104e+01  2.6635018364980485e+01  2.1949660644737900e+01  3.0787134586348056e+01  2.4013660165462529e+01  2.2434881459089418e+01  2.0612323394375800e+01  3.1510651964669737e+01  2.4552138223456012e+01  2.0285654643722275e+01  2.0307173082164390e+01  2.0063118014966690e+01  2.3702233127806057e+01  2.9283969282895853e+01  2.2927304800829106e+01  2.3749469678798317e+01  2.3898756960403869e+01  2.3833595297185823e+01  2.6148398261450048e+01  2.0545546499453206e+01  3.2102867613013927e+01  2.0095759246861459e+01  2.6917228033703548e+01  2.1569567870756725e+01  2.3666945914544456e+01  2.0162361505657401e+01  2.0345203425277415e+01  2.1183201172362821e+01  2.6373979040323306e+01  2.0710478075004424e+01  2.8463991026946889e+01  2.0532803472464092e+01  2.0059574534405158e+01  2.4189291321096604e+01  2.1498728716844045e+01  2.6422837732003092e+01  2.0257142741222669e+01  2.3754595109469058e+01  2.0127981412047198e+01  2.2402267548171256e+01  3.2909043848388471e+01  2.0024704295891553e+01  2.3311764881191436e+01  2.0638974221170994e+01  2.0114727091812163e+01  2.0385801783021424e+01  2.4071562416426129e+01  2.1362763452916845e+01  2.0215723970285623e+01  2.0775425773190687e+01  3.1107661213900048e+01  2.4322651815805159e+01  2.3980129643022924e+01  2.3614863820918135e+01  2.0509401874237888e+01  2.2212729685227377e+01  2.2572181070688316e+01  2.4145688351312639e+01  2.0184233598544594e+01  2.3864630208693544e+01  2.0526510998427391e+01  2.3174889358526478e+01  2.8070046802711051e+01  2.4416617265302246e+01  2.0231771505458344e+01  2.8255054846663214e+01  2.1220832398895894e+01  2.0211459255001891e+01  2.0304092286020907e+01  2.0297190064483541e+01  2.0832133482907381e+01  2.0826198886129870e+01  2.0070362335451847e+01  2.3455572808938257e+01  2.9197288514987385e+01  2.2809907126967516e+01  2.0981628266516044e+01  2.0477970285353909e+01  2.4356972561101212e+01  2.3662342795290822e+01  2.0052302834261319e+01  2.7570492955747213e+01  2.3616641880039250e+01  2.3671807764190770e+01  2.0710748617364107e+01  2.3904320650655027e+01  2.3233433079012308e+01  2.9860242242957966e+01  2.0210505586763070e+01  2.3392204646467494e+01  2.3967055477703610e+01  2.0196798714376396e+01  2.0161967933315299e+01  2.0167460192997119e+01  2.0066618354305330e+01  3.1852819082803340e+01  2.1906833088530679e+01  2.7788196181934069e+01  2.0798323546250245e+01  2.3421550867945164e+01  2.2695345038693855e+01  2.1752334673855078e+01  2.4205498978393141e+01  2.6901458178842045e+01  2.8300628585529918e+01  2.0310346505173477e+01  2.2912677565428435e+01  2.0157701665480889e+01  2.0175203455644780e+01  2.4270377543235444e+01  2.1569741796803491e+01  3.0532961514023945e+01  2.0254368966848890e+01  3.0075155650366010e+01  3.0474369979861972e+01  2.0077885549922264e+01  2.0065208055976917e+01  3.1283063749365130e+01  3.1379731069672964e+01  2.5694009833445627e+01  2.1500063914647907e+01  2.0660379301955107e+01  2.0579736408812781e+01  2.1559015698320330e+01  2.1251366817921536e+01  2.0745746110466964e+01  2.0047501550616698e+01  2.0806964928628258e+01  2.1897899466055069e+01  2.6892665091089309e+01  2.6301946576410465e+01  2.0517481479591090e+01  2.0544018738601089e+01  2.0730978710363388e+01  2.1462797430780338e+01  2.0404386856965083e+01  2.6655438189009310e+01  2.4189375983593173e+01  2.3550159218720111e+01  2.4653328615393434e+01  2.4411983470470577e+01  2.7587904627182596e+01  2.0037801755140972e+01  3.2391995902959316e+01  3.2266015937091339e+01  3.2270870555351010e+01  2.0046085226276816e+01  2.0037157921754840e+01  2.0174488255280632e+01  2.3433001877604248e+01  2.0239387895341835e+01  2.4959464094746842e+01  2.0348412733014520e+01  2.0165833421802603e+01  2.0151179208806155e+01  2.3248578409852300e+01  2.3042363436101915e+01  2.3155934071888570e+01  2.0708646391700157e+01  3.2484814931891307e+01  2.2930135015148196e+01  2.0144179979791598e+01  2.0090950426100530e+01  2.3049742631330037e+01  2.1006188383476271e+01  2.2633595077550961e+01  2.7386465515525607e+01  2.4210699059351022e+01  2.0165446592383542e+01  2.4146876024307964e+01  2.0487820832375721e+01  2.0268120208580722e+01  2.0285209157796572e+01  2.0203864835375033e+01  2.9004800621203419e+01  2.0998041932514013e+01  3.1295837128206994e+01  2.0225322950086184e+01  2.3475003271962578e+01  2.0255000479007453e+01  2.4695103480093284e+01  2.3064841394737137e+01  2.0040406096796399e+01  2.1164196122077819e+01  3.1131718337710666e+01  2.0329214623545926e+01  2.0124929210155649e+01  2.0609454957374759e+01  2.6419607304872216e+01  2.2963051781073606e+01  2.0486890704123063e+01  2.1215495456318255e+01  2.0886313010259855e+01  2.0748181290282400e+01  2.9173576369013261e+01  2.5892262578849991e+01  2.2527065484688492e+01  2.0860802545740253e+01  2.0371602881681884e+01  2.0642742046357640e+01  2.0888569753930273e+01  2.0906514284992404e+01  2.3512028721216044e+01  2.4307517535447978e+01  2.2785318121872304e+01  2.0169388793915193e+01  2.4111895129544031e+01  2.0248160160473073e+01  2.7583216303998210e+01  2.3905167935970379e+01  2.3987162327668287e+01  2.3899059326927553e+01  2.4331979867743119e+01  2.0470707205302439e+01  2.1826945301707653e+01  2.0449763233552940e+01  2.0448974750872328e+01  2.0390922872313272e+01  2.1106679681717374e+01  2.0073879933900489e+01  2.0201350634870980e+01  2.1355321085547608e+01  3.1305172954038561e+01  3.1676605923514181e+01  2.9985155733961506e+01  2.1158826930068496e+01  2.3082930495143579e+01  2.2824769685365847e+01  2.0501284113628529e+01  2.0659571654284164e+01  2.9408914314022958e+01  2.6059930328240796e+01  2.0082201227556752e+01  2.4150260847502615e+01  2.4672893757171011e+01  2.0366544492358280e+01  2.8910598641347846e+01  2.0631043673074242e+01  2.4975726555008286e+01  2.0552228127398816e+01  2.5202048320112809e+01  2.1644412608017667e+01  2.1763131387051665e+01  2.0750916335620985e+01  2.6914285730888050e+01  2.0901427288210293e+01  2.0465040762280328e+01  2.0781636890619811e+01  2.0714184770108467e+01  2.6539813077486912e+01  2.0931375872964050e+01  2.1230124382986844e+01  2.5543599458047957e+01  2.1378528764596357e+01  2.0482305778999226e+01  2.4615136504561598e+01  2.0035853712125384e+01  3.2444796770523460e+01  2.438