<?xml version="1.0"?>
<VTKFile type="UnstructuredGrid"  version="0.1"  >
<UnstructuredGrid>
<Piece  NumberOfPoints="2331" NumberOfCells="4248">
<Points>
<DataArray  type="Float64"  NumberOfComponents="3"  format="ascii">0 0.3 0  0 0 0  0.04999999999999999 0 0  0.0514582251803892 0.02410733605106462 0  0.0558116365147896 0.04786313285751154 0  0.06299675146291706 0.07092097740850717 0  0.07290879486935808 0.09294463440875382 0  0.08540322682126872 0.1136129493462312 0  0.1002978503657798 0.132624531648159 0  0.117375468351841 0.1497021496342203 0  0.1363870506537689 0.1645967731787313 0  0.1570553655912463 0.177091205130642 0  0.1790790225914929 0.187003248537083 0  0.2021368671424885 0.1941883634852104 0  0.2258926639489354 0.1985417748196108 0  0.25 0.2 0  0.2741073360510646 0.1985417748196108 0  0.2978631328575116 0.1941883634852104 0  0.3209209774085071 0.187003248537083 0  0.3429446344087537 0.177091205130642 0  0.3636129493462312 0.1645967731787313 0  0.3826245316481591 0.1497021496342202 0  0.3997021496342202 0.132624531648159 0  0.4145967731787313 0.1136129493462312 0  0.427091205130642 0.09294463440875371 0  0.4370032485370829 0.07092097740850713 0  0.4441883634852104 0.04786313285751155 0  0.4485417748196108 0.02410733605106461 0  0.45 0 0  0.55 0 0  0.5514582251803892 0.02410733605106462 0  0.5558116365147896 0.04786313285751154 0  0.5629967514629171 0.07092097740850717 0  0.5729087948693581 0.09294463440875382 0  0.5854032268212688 0.1136129493462312 0  0.6002978503657798 0.132624531648159 0  0.617375468351841 0.1497021496342203 0  0.6363870506537689 0.1645967731787313 0  0.6570553655912463 0.177091205130642 0  0.6790790225914929 0.187003248537083 0  0.7021368671424885 0.1941883634852104 0  0.7258926639489354 0.1985417748196108 0  0.75 0.2 0  0.7741073360510646 0.1985417748196108 0  0.7978631328575116 0.1941883634852104 0  0.8209209774085071 0.187003248537083 0  0.8429446344087537 0.177091205130642 0  0.8636129493462312 0.1645967731787313 0  0.8826245316481591 0.1497021496342202 0  0.8997021496342202 0.132624531648159 0  0.9145967731787312 0.1136129493462312 0  0.927091205130642 0.09294463440875371 0  0.9370032485370829 0.07092097740850713 0  0.9441883634852104 0.04786313285751155 0  0.9485417748196108 0.02410733605106461 0  0.95 0 0  1 0 0  1 0.3 0  0.9758926639489353 0.3014582251803892 0  0.9521368671424885 0.3058116365147896 0  0.9290790225914928 0.3129967514629171 0  0.9070553655912461 0.3229087948693581 0  0.8863870506537688 0.3354032268212687 0  0.867375468351841 0.3502978503657798 0  0.8502978503657798 0.367375468351841 0  0.8354032268212687 0.3863870506537689 0  0.822908794869358 0.4070553655912464 0  0.8129967514629171 0.4290790225914929 0  0.8058116365147896 0.4521368671424885 0  0.8014582251803892 0.4758926639489354 0  0.8 0.4999999999999999 0  0.8014582251803892 0.5241073360510646 0  0.8058116365147896 0.5478631328575115 0  0.8129967514629171 0.5709209774085071 0  0.8229087948693581 0.5929446344087538 0  0.8354032268212688 0.6136129493462312 0  0.8502978503657798 0.632624531648159 0  0.867375468351841 0.6497021496342202 0  0.8863870506537689 0.6645967731787313 0  0.9070553655912463 0.677091205130642 0  0.9290790225914929 0.6870032485370829 0  0.9521368671424885 0.6941883634852104 0  0.9758926639489354 0.6985417748196108 0  1 0.7 0  1 1 0  0.95 1 0  0.9485417748196108 0.9758926639489353 0  0.9441883634852104 0.9521368671424885 0  0.9370032485370829 0.9290790225914928 0  0.927091205130642 0.9070553655912463 0  0.9145967731787312 0.8863870506537688 0  0.8997021496342201 0.8673754683518409 0  0.882624531648159 0.8502978503657798 0  0.863612949346231 0.8354032268212686 0  0.8429446344087537 0.822908794869358 0  0.8209209774085071 0.8129967514629171 0  0.7978631328575114 0.8058116365147896 0  0.7741073360510646 0.8014582251803892 0  0.75 0.8 0  0.7258926639489353 0.8014582251803892 0  0.7021368671424885 0.8058116365147896 0  0.6790790225914928 0.8129967514629171 0  0.6570553655912461 0.8229087948693581 0  0.6363870506537688 0.8354032268212688 0  0.617375468351841 0.8502978503657798 0  0.6002978503657798 0.867375468351841 0  0.5854032268212687 0.8863870506537689 0  0.572908794869358 0.9070553655912463 0  0.5629967514629171 0.9290790225914929 0  0.5558116365147896 0.9521368671424885 0  0.5514582251803892 0.9758926639489355 0  0.55 0.9999999999999999 0  0.45 0.9999999999999999 0  0.4485417748196108 0.9758926639489353 0  0.4441883634852104 0.9521368671424885 0  0.4370032485370829 0.9290790225914928 0  0.427091205130642 0.9070553655912463 0  0.4145967731787313 0.8863870506537688 0  0.3997021496342201 0.8673754683518409 0  0.382624531648159 0.8502978503657798 0  0.363612949346231 0.8354032268212686 0  0.3429446344087536 0.822908794869358 0  0.3209209774085071 0.8129967514629171 0  0.2978631328575115 0.8058116365147896 0  0.2741073360510646 0.8014582251803892 0  0.25 0.8 0  0.2258926639489353 0.8014582251803892 0  0.2021368671424885 0.8058116365147896 0  0.1790790225914928 0.8129967514629171 0  0.1570553655912462 0.8229087948693581 0  0.1363870506537688 0.8354032268212688 0  0.117375468351841 0.8502978503657798 0  0.1002978503657797 0.867375468351841 0  0.08540322682126869 0.8863870506537689 0  0.07290879486935797 0.9070553655912463 0  0.06299675146291703 0.9290790225914929 0  0.05581163651478957 0.9521368671424885 0  0.0514582251803892 0.9758926639489355 0  0.04999999999999999 0.9999999999999999 0  0 1 0  -0 0.7000000000000001 0  0.0241073360510646 0.6985417748196108 0  0.04786313285751161 0.6941883634852104 0  0.07092097740850711 0.6870032485370829 0  0.09294463440875372 0.677091205130642 0  0.1136129493462312 0.6645967731787312 0  0.1326245316481591 0.6497021496342202 0  0.1497021496342202 0.632624531648159 0  0.1645967731787313 0.6136129493462312 0  0.177091205130642 0.5929446344087537 0  0.187003248537083 0.5709209774085071 0  0.1941883634852104 0.5478631328575115 0  0.1985417748196108 0.5241073360510646 0  0.2 0.5 0  0.1985417748196108 0.4758926639489353 0  0.1941883634852104 0.4521368671424885 0  0.1870032485370829 0.4290790225914928 0  0.177091205130642 0.4070553655912463 0  0.1645967731787313 0.3863870506537688 0  0.1497021496342202 0.3673754683518409 0  0.132624531648159 0.3502978503657798 0  0.113612949346231 0.3354032268212686 0  0.09294463440875361 0.322908794869358 0  0.07092097740850711 0.3129967514629171 0  0.04786313285751148 0.3058116365147896 0  0.02410733605106464 0.3014582251803892 0  0.6985417748196108 0.5241073360510646 0  0.7 0.5 0  0.6985417748196108 0.4758926639489353 0  0.6941883634852104 0.4521368671424885 0  0.6870032485370829 0.4290790225914928 0  0.677091205130642 0.4070553655912463 0  0.6645967731787312 0.3863870506537688 0  0.6497021496342201 0.3673754683518409 0  0.632624531648159 0.3502978503657798 0  0.613612949346231 0.3354032268212686 0  0.5929446344087537 0.322908794869358 0  0.5709209774085071 0.3129967514629171 0  0.5478631328575114 0.3058116365147896 0  0.5241073360510646 0.3014582251803892 0  0.4999999999999999 0.3 0  0.4758926639489353 0.3014582251803892 0  0.4521368671424885 0.3058116365147896 0  0.4290790225914928 0.3129967514629171 0  0.4070553655912462 0.3229087948693581 0  0.3863870506537688 0.3354032268212687 0  0.367375468351841 0.3502978503657798 0  0.3502978503657798 0.367375468351841 0  0.3354032268212687 0.3863870506537689 0  0.322908794869358 0.4070553655912464 0  0.3129967514629171 0.4290790225914929 0  0.3058116365147896 0.4521368671424885 0  0.3014582251803892 0.4758926639489354 0  0.3 0.4999999999999999 0  0.3014582251803892 0.5241073360510646 0  0.3058116365147896 0.5478631328575115 0  0.3129967514629171 0.5709209774085071 0  0.3229087948693581 0.5929446344087538 0  0.3354032268212687 0.6136129493462312 0  0.3502978503657798 0.632624531648159 0  0.367375468351841 0.6497021496342202 0  0.3863870506537689 0.6645967731787313 0  0.4070553655912463 0.677091205130642 0  0.4290790225914929 0.6870032485370829 0  0.4521368671424885 0.6941883634852104 0  0.4758926639489354 0.6985417748196108 0  0.4999999999999999 0.7 0  0.5241073360510646 0.6985417748196108 0  0.5478631328575116 0.6941883634852104 0  0.5709209774085071 0.6870032485370829 0  0.5929446344087537 0.677091205130642 0  0.6136129493462312 0.6645967731787312 0  0.6326245316481591 0.6497021496342202 0  0.6497021496342202 0.632624531648159 0  0.6645967731787312 0.6136129493462312 0  0.677091205130642 0.5929446344087537 0  0.6870032485370829 0.5709209774085071 0  0.6941883634852104 0.5478631328575115 0  0 0.15 0  1 0.15 0  1 0.85 0  0 0.8500000000000001 0  0 0.075 0  1 0.075 0  1 0.925 0  0 0.925 0  0.5 0.8127595604293815 0  0.5069440078039168 0.190422209288238 0  0.25 0.3127595604293815 0  0.756944007803917 0.3095777907117619 0  0.756944007803917 0.6904222092882382 0  0.25 0.6872404395706185 0  0 0.225 0  0.4255768646051012 0.2241073097134061 0  1 0.7749999999999999 0  0.6773391559270888 0.2766774022734219 0  1 0.225 0  0.6755768646051011 0.7241073097134062 0  0 0.7750000000000001 0  0.5818971135297744 0.2287925518358889 0  0.8318971135297746 0.728792551835889 0  0.1659156081861886 0.7301636995921477 0  0.08376842746533225 0.2299656297760495 0  0.4236002201977974 0.7746535834185855 0  0.0840843918138115 0.7698363004078523 0  0.3340843918138113 0.7301636995921477 0  0.3340843918138114 0.2698363004078523 0  0.9159156081861887 0.2301636995921477 0  0.5840843918138116 0.7698363004078522 0  0.1659156081861887 0.2698363004078523 0  0.9162315725346678 0.7700343702239506 0  0.8340843918138114 0.2698363004078523 0  0.75 0.6146645247768686 0  0.5 0.1125158665330878 0  0.75 0.3874841334669124 0  0.2504983345544904 0.6122915843562002 0  0.2504983345544902 0.3877084156437999 0  0.5 0.8879783056303169 0  0.7005361650220154 0.3333055947145943 0  0.70416808765371 0.6599554817221275 0  0.449930214263529 0.1678187287522426 0  0.2247310981387008 0.7415600637745463 0  0.5155081196221678 0.7563797802146907 0  0.2752689018612993 0.2584399362254537 0  0.05605196690611226 0.8246131191226815 0  0.9439480330938878 0.1
[...]
<PointData  Scalars="Temperature"> 
<DataArray  type="Float64"  Name="Temperature"  format="ascii">2.6921218939463159e+01  2.7979259266820733e+01  2.7972630462129391e+01  2.7954924160981282e+01  2.7904070517686733e+01  2.7821562043484530e+01  2.7706015969467874e+01  2.7554991703565719e+01  2.7370497283042738e+01  2.7151276107202435e+01  2.6893441860816576e+01  2.6600638142174770e+01  2.6280360365821050e+01  2.5937919816826263e+01  2.5578084778947538e+01  2.5212391018577257e+01  2.4847284609374647e+01  2.4488056295313910e+01  2.4148920298410722e+01  2.3827597540415280e+01  2.3536360152007049e+01  2.3277979815522436e+01  2.3049243024245452e+01  2.2861642478860073e+01  2.2711007481105334e+01  2.2603051425959009e+01  2.2526363774243876e+01  2.2484883009727515e+01  2.2470937071691647e+01  2.2173069800025512e+01  2.2156191633849474e+01  2.2104711351975467e+01  2.2015525182770084e+01  2.1894746210890439e+01  2.1741836563103718e+01  2.1568331031021096e+01  2.1388041090078517e+01  2.1204492012658946e+01  2.1027294916181337e+01  2.0862896864203478e+01  2.0715004588087382e+01  2.0586006032658698e+01  2.0476406162427235e+01  2.0384829391779693e+01  2.0309411899199155e+01  2.0249235902027788e+01  2.0201193809226858e+01  2.0164011312780389e+01  2.0135763509891248e+01  2.0114820392069259e+01  2.0099797633221211e+01  2.0089335794710987e+01  2.0082458094337010e+01  2.0078033311321761e+01  2.0075530346542774e+01  2.0074707466001367e+01  2.0072767152794633e+01  2.0085194896977526e+01  2.0090273468450047e+01  2.0104280283515944e+01  2.0125511738081396e+01  2.0151868851643542e+01  2.0181507553614722e+01  2.0211471144297981e+01  2.0240423194518890e+01  2.0264912266138545e+01  2.0283788542121723e+01  2.0293331760059441e+01  2.0294957203253723e+01  2.0288171472469447e+01  2.0274779941192666e+01  2.0257661950049719e+01  2.0236191465478722e+01  2.0211632559680790e+01  2.0185648626916343e+01  2.0158581701594539e+01  2.0131874888519768e+01  2.0107686159774929e+01  2.0085775304672314e+01  2.0067504397454719e+01  2.0052776212619758e+01  2.0041937132220049e+01  2.0035164740722450e+01  2.0032693533820826e+01  2.0012482399130068e+01  2.0012781093550021e+01  2.0013297752949441e+01  2.0014732715801856e+01  2.0017047660050920e+01  2.0020370618443661e+01  2.0025098312576748e+01  2.0031630091133458e+01  2.0040396321295010e+01  2.0051996066646659e+01  2.0067157363074916e+01  2.0086479710258349e+01  2.0110047892674050e+01  2.0138306800899368e+01  2.0170374408295785e+01  2.0206523800271729e+01  2.0244669477966010e+01  2.0284275796496424e+01  2.0321531280320684e+01  2.0355496928593514e+01  2.0382548965030658e+01  2.0401857005578012e+01  2.0409855579211001e+01  2.0409245059046192e+01  2.0399909999719085e+01  2.0385522888040047e+01  2.0373304635216634e+01  2.0368227000992885e+01  2.0416818045992915e+01  2.0431450664002316e+01  2.0469267473723679e+01  2.0527298557606674e+01  2.0604285179928677e+01  2.0701078275547111e+01  2.0815384979211753e+01  2.0947306702282802e+01  2.1092614649941758e+01  2.1251141723652111e+01  2.1414997042481005e+01  2.1578416275966301e+01  2.1733600071896927e+01  2.1870838828455401e+01  2.1983529201934530e+01  2.2062783357011931e+01  2.2106062444152879e+01  2.2111703177515594e+01  2.2078546951579419e+01  2.2014944536168016e+01  2.1923114018605592e+01  2.1809909333075520e+01  2.1686139037735156e+01  2.1563199895795162e+01  2.1453409132988035e+01  2.1375549820966725e+01  2.1342765184582618e+01  2.1343795917403977e+01  2.2647211191322707e+01  2.2649711314507211e+01  2.2659934397295277e+01  2.2677221984125566e+01  2.2702405139195172e+01  2.2736482581262031e+01  2.2782164806249906e+01  2.2844762589965608e+01  2.2925529386782443e+01  2.3025019829123508e+01  2.3153771090435324e+01  2.3309006022558190e+01  2.3493189902179566e+01  2.3700853021347044e+01  2.3931093556110188e+01  2.4182787661808867e+01  2.4456850963299665e+01  2.4754425776234225e+01  2.5073878611046652e+01  2.5404409104654842e+01  2.5734678347860346e+01  2.6049294587554879e+01  2.6336566698784345e+01  2.6581065009155079e+01  2.6764491633672296e+01  2.6881099836795528e+01  2.0316359904120215e+01  2.0333312153478115e+01  2.0358323170268292e+01  2.0392394076451954e+01  2.0437780208637601e+01  2.0497478867119959e+01  2.0574789477350826e+01  2.0672547807235780e+01  2.0794983766961508e+01  2.0941240040865214e+01  2.1115554491089711e+01  2.1319547688084143e+01  2.1551328983779243e+01  2.1809729388264778e+01  2.2089145702213994e+01  2.2383199572714634e+01  2.2680380487124335e+01  2.2973736009203094e+01  2.3243456672589577e+01  2.3487720296379859e+01  2.3684999061277381e+01  2.3832277270706335e+01  2.3915652199024063e+01  2.3941582367870424e+01  2.3898451240998384e+01  2.3801858516875466e+01  2.3653881398187430e+01  2.3468974061350316e+01  2.3259123356759552e+01  2.3031341360407939e+01  2.2795884364962816e+01  2.2549509354486137e+01  2.2305227658361321e+01  2.2064945226194567e+01  2.1833507888724341e+01  2.1617021032258126e+01  2.1414509524775848e+01  2.1232593891830238e+01  2.1068878946733093e+01  2.0925826668152791e+01  2.0800830341106128e+01  2.0693777104360652e+01  2.0602633956809935e+01  2.0527674875633370e+01  2.0465425909937863e+01  2.0414789975391745e+01  2.0374706482265005e+01  2.0344240816236553e+01  2.0322546145351883e+01  2.0309476120188915e+01  2.0304080738745984e+01  2.0306678142873242e+01  2.7569255362327805e+01  2.0081986660999469e+01  2.0021502849223815e+01  2.1928778289073151e+01  2.7865188987563705e+01  2.0076198802397126e+01  2.0015343245320516e+01  2.1538814298023439e+01  2.0643550979845532e+01  2.2131596990588044e+01  2.4824576978993051e+01  2.0413091113972317e+01  2.0193929232086351e+01  2.2300099979147429e+01  2.7182862309050368e+01  2.2966063209357010e+01  2.0028207128754072e+01  2.0740878290215051e+01  2.0083936558549926e+01  2.0303537602541827e+01  2.2371986853090348e+01  2.1410943579816209e+01  2.0101470981062857e+01  2.2404740945092904e+01  2.6902299646615997e+01  2.1016922293063217e+01  2.2357537906614734e+01  2.1629195409565721e+01  2.4001874678695074e+01  2.0126436269614135e+01  2.0469862246665457e+01  2.5987323313069080e+01  2.0044428321701368e+01  2.0241307608056985e+01  2.0238085885869737e+01  2.2278483873595334e+01  2.0382671677314093e+01  2.2762207318337136e+01  2.4382861158248911e+01  2.0508880243602576e+01  2.0573451594982306e+01  2.0280983583571782e+01  2.2719795580563591e+01  2.2136658538809886e+01  2.0687892680457164e+01  2.4761287202551259e+01  2.2073659725117089e+01  2.0100466328114678e+01  2.7341528621523221e+01  2.0028757684674300e+01  2.2293420443608664e+01  2.0207380662439139e+01  2.0516720783200011e+01  2.0784627282796535e+01  2.2612696986301625e+01  2.5374760384972312e+01  2.2044895600620851e+01  2.4148687946529382e+01  2.0476018937571194e+01  2.2309668664018158e+01  2.0342440561550699e+01  2.0274550964679420e+01  2.4007148007847480e+01  2.3234647148375604e+01  2.0391117222768145e+01  2.0428264618762718e+01  2.5402938230765187e+01  2.1907806868424295e+01  2.1672160177007786e+01  2.0171025088213415e+01  2.0277927207066497e+01  2.1007138938856883e+01  2.3339486727745403e+01  2.3717543308883627e+01  2.0348892453223510e+01  2.0432058349295342e+01  2.1009403408052957e+01  2.0147019196516883e+01  2.0351744859697021e+01  2.0307098027037242e+01  2.2320123403559482e+01  2.3628843046087201e+01  2.1280069239408451e+01  2.1367033592771403e+01  2.1824439435330010e+01  2.0068660478818821e+01  2.0067279679453812e+01  2.0819435615049731e+01  2.6529697755537814e+01  2.2514622769303628e+01  2.0147194212067006e+01  2.2264000789569547e+01  2.6420433044150077e+01  2.2541638317228248e+01  2.0095234761847756e+01  2.0189422100708210e+01  2.0036284092856480e+01  2.6942985293195008e+01  2.0088791357089551e+01  2.0021563584470663e+01  2.7631002981816007e+01  2.1831094187724297e+01  2.0310095835646568e+01  2.0140464923560433e+01  2.1920120237263962e+01  2.0249435988940998e+01  2.0404391141916921e+01  2.1726589198949842e+01  2.5891812428045167e+01  2.0134239348947077e+01  2.3750703631693828e+01  2.2646878233889002e+01  2.2135033819569880e+01  2.7054881781385809e+01  2.0043925247833645e+01  2.2805326386991624e+01  2.4886902093840813e+01  2.0519579535799163e+01  2.0104808933014723e+01  2.4392702086663807e+01  2.2401850747128179e+01  2.0699077244302149e+01  2.0789231430914150e+01  2.1015552028254120e+01  2.2715653693647095e+01  2.0363652475221546e+01  2.3265514932839768e+01  2.0272780243593445e+01  2.0634414928519405e+01  2.1006163669914883e+01  2.1417892468318200e+01  2.0558723168854261e+01  2.0108408786668726e+01  2.1245384045742128e+01  2.2171861033354318e+01  2.4242079875009047e+01  2.1626929297888282e+01  2.5904609199306687e+01  2.0210975035855114e+01  2.0537925165796658e+01  2.2512484406109159e+01  2.7172012078993809e+01  2.0263309411717376e+01  2.0097900995410861e+01  2.2299861518066017e+01  2.0576568130999764e+01  2.2150385280411239e+01  2.0083434796479050e+01  2.0313622692026605e+01  2.0029037532899704e+01  2.2621555309832196e+01  2.0437813811133612e+01  2.0491771063635042e+01  2.2346929002224105e+01  2.7381601367834300e+01  2.0232629960618201e+01  2.0284267145634225e+01  2.0213645689968626e+01  2.3073443192556585e+01  2.4514442068313638e+01  2.2449353302697368e+01  2.4075279995650309e+01  2.2582332941812524e+01  2.2473181511615582e+01  2.2126239239416684e+01  2.0322396937720374e+01  2.0415979971266097e+01  2.0440799038029539e+01  2.0429792853884202e+01  2.0529539444210517e+01  2.0024929052225950e+01  2.2560304822973247e+01  2.0018269159800898e+01  2.0083969292896324e+01  2.7005882704117838e+01  2.0073682104758394e+01  2.7949945265426525e+01  2.0079319261220483e+01  2.0081442533814492e+01  2.7734306967578050e+01  2.0013266901228878e+01  2.1400455653163771e+01  2.0031194826413728e+01  2.1721467641082498e+01  2.1638907712619645e+01  2.4043942156733209e+01  2.2892891725033937e+01  2.2359826383190658e+01  2.4359616786667132e+01  2.0647485469215358e+01  2.0049269050741561e+01  2.1857058966374996e+01  2.5352816678168761e+01  2.0162270527581629e+01  2.0194256456632427e+01  2.0839712221415176e+01  2.0031074474398761e+01  2.0570640870445537e+01  2.1950611106433811e+01  2.2563680052901336e+01  2.4761938209754334e+01  2.6386795385079424e+01  2.1205371598723527e+01  2.1962943942764905e+01  2.0410147575763293e+01  2.0359065697024850e+01  2.0645178603516911e+01  2.0304886348597361e+01  2.0335543079238381e+01  2.0017524470836197e+01  2.7786175750402581e+01  2.6756554294933800e+01  2.0134050763544447e+01  2.2061839584912022e+01  2.5254304865736124e+01  2.0186009564694583e+01  2.1661694282501390e+01  2.0268606964877481e+01  2.0117430496262649e+01  2.0596974797615953e+01  2.3337999399397493e+01  2.0365137866187016e+01  2.1156693043972957e+01  2.7905720758127700e+01  2.0077266639021040e+01  2.0014531370153183e+01  2.1467690978576215e+01  2.1174748826058028e+01  2.0288459976965580e+01  2.2621045108014140e+01  2.1929180806019858e+01  2.2037776487650579e+01  2.0104220553441753e+01  2.0086669648190281e+01  2.1412237587217074e+01  2.7299968833347368e+01  2.7132410321954744e+01  2.7455927571463345e+01  2.3033918414240514e+01  2.2833916962836334e+01  2.6724469246730099e+01  2.0759168603386325e+01  2.2663900516082087e+01  2.2150102622324180e+01  2.0170671517906580e+01  2.0667195775678511e+01  2.0422335248504968e+01  2.3611962015379756e+01  2.0422755973130439e+01  2.0024416675518328e+01  2.0311743592833675e+01  2.0237224998451467e+01  2.1440180804236054e+01  2.0390729169953193e+01  2.0234644015061349e+01  2.2401832210146818e+01  2.2234073204106910e+01  2.0305469279656567e+01  2.0361018750069256e+01  2.3745493074821319e+01  2.4014057539015482e+01  2.0624337405620974e+01  2.0080614387329764e+01  2.0437135932889703e+01  2.0951382854740899e+01  2.4379712619179774e+01  2.1519196426131515e+01  2.5627502895147291e+01  2.1854520819549197e+01  2.1989696759891739e+01  2.2310705048440010e+01  2.4670557115591450e+01  2.4981356276192180e+01  2.2163776340900657e+01  2.0469330635812621e+01  2.0429981935598732e+01  2.4469970420219052e+01  2.2516236850864153e+01  2.3978513034811542e+01  2.5542908783271251e+01  2.1964089356926262e+01  2.2797199815005875e+01  2.0550204964465625e+01  2.0305848110533724e+01  2.0276514389570011e+01  2.3405243062040778e+01  2.3489334203835579e+01  2.6229590899860987e+01  2.0253901693789942e+01  2.0222165061422348e+01  2.0204944208585960e+01  2.3009580918399120e+01  2.0303401857733110e+01  2.0675545432193442e+01  2.3056649695455263e+01  2.0752243277706917e+01  2.0881953149226849e+01  2.0497370352572133e+01  2.2249255224979176e+01  2.2218303782753896e+01  2.0576510457598133e+01  2.0831838514558250e+01  2.0035206796056730e+01  2.6749078319825198e+01  2.0266038824460932e+01  2.1683836322457385e+01  2.0075765394880040e+01  2.0057655036753282e+01  2.0336783552299739e+01  2.0256401200335318e+01  2.0218255903303604e+01  2.2169241633568049e+01  2.3428461160918992e+01  2.3677558891488449e+01  2.0353583900702194e+01  2.0398950863901259e+01  2.1255305966787446e+01  2.1451577761480547e+01  2.2137256905132993e+01  2.1203166035613538e+01  2.0156536474013258e+01  2.0259320151294769e+01  2.0115159368066525e+01  2.2201935628005920e+01  2.1676955111383645e+01  2.0012622054890347e+01  2.0073683070762964e+01  2.7976476494158661e+01  2.1342965292611552e+01  2.2406777191818595e+01  2.1201339194934476e+01  2.3740630836944437e+01  2.0887580885935783e+01  2.0318281134670425e+01  2.0180035541395778e+01  2.2163623541107938e+01  2.2459096130825952e+01  2.4213668050122347e+01  2.0327124726393642e+01  2.0086507077972435e+01  2.0075180159223848e+01  2.0057638215498461e+01  2.0088225784327157e+01  2.0491468606071230e+01  2.3990775137930143e+01  2.2981842973643271e+01  2.0400452894795166e+01  2.0374585943093177e+01  2.0467379797937479e+01  2.0406042005259227e+01  2.0247179195780454e+01  2.3307766510284335e+01  2.3092910013259356e+01  2.6141191762123189e+01  2.4031110736881388e+01  2.1172864954841938e+01  2.6655612237172463e+01  2.2478256051829661e+01  2.1460879353712400e+01  2.0364946940198269e+01  2.7093846944780889e+01  2.2849459742549865e+01  2.0163379434998379e+01  2.0179462617256412e+01  2.0034139457132010e+01  2.2250882800624261e+01  2.5737194434190641e+01  2.1762532409430946e+01  2.2289613581244272e+01  2.2405818438884246e+01  2.2360684046969524e+01  2.3780247738611035e+01  2.0335297022475373e+01  2.7476054152086075e+01  2.0052454576937560e+01  2.4239907952889482e+01  2.0939857536776980e+01  2.2260401549601603e+01  2.0087976737834754e+01  2.0204207884474219e+01  2.0714738760282714e+01  2.3823538350715552e+01  2.0407484692809966e+01  2.5215316030378059e+01  2.0311612101861733e+01  2.0030771283585704e+01  2.2638889353058779e+01  2.0886740287305702e+01  2.3880641295622024e+01  2.0147013115566445e+01  2.2296758395295740e+01  2.0074965787417010e+01  2.1383137489310318e+01  2.7955814994088126e+01  2.0013195775536662e+01  2.1999290112062674e+01  2.0374690950154420e+01  2.0062183433601163e+01  2.0221473016235155e+01  2.2536361884513305e+01  2.0792908233788737e+01  2.0115167322903606e+01  2.0469873217042892e+01  2.6844545787946728e+01  2.2713200433391332e+01  2.2477681951784952e+01  2.2190098714562854e+01  2.0293767979525501e+01  2.1331234381526890e+01  2.1551019842288483e+01  2.2617930445169879e+01  2.0096310791355950e+01  2.2404925709962118e+01  2.0301115947438259e+01  2.1902195711134450e+01  2.4996079841199023e+01  2.2687617404344241e+01  2.0130291252474152e+01  2.5078172626125014e+01  2.0747246520888773e+01  2.0119215449149060e+01  2.0174832907305557e+01  2.0172093674494445e+01  2.0487637533758832e+01  2.0485332100815302e+01  2.0037375534980971e+01  2.2078607674324140e+01  2.5696301153067122e+01  2.1676860943414070e+01  2.0581270258329212e+01  2.0301350046203741e+01  2.2665031075977350e+01  2.2231285220153499e+01  2.0027190726751609e+01  2.4643137834285373e+01  2.2203220679546874e+01  2.2220098397475581e+01  2.0408510824732328e+01  2.2423050620697069e+01  2.1919467103236034e+01  2.6102753172890175e+01  2.0122884185255717e+01  2.2046767032630459e+01  2.2474478588770101e+01  2.0106972769837583e+01  2.0084098347653999e+01  2.0088585592499445e+01  2.0036549843219944e+01  2.7319752366717996e+01  2.1108982629582833e+01  2.4794352827247558e+01  2.0461101797436719e+01  2.2053371898082148e+01  2.1602962140642557e+01  2.1035290894135059e+01  2.2518637736690305e+01  2.4176663013637778e+01  2.5129166481268083e+01  2.0169818689796386e+01  2.1728077330478705e+01  2.0092011180450442e+01  2.0097695030671485e+01  2.2657261331429392e+01  2.0956098101627912e+01  2.6482609677864673e+01  2.0137656458824456e+01  2.6225178099841994e+01  2.6477586810597675e+01  2.0041163254756984e+01  2.0033775006073459e+01  2.6936540761145451e+01  2.7016476856944767e+01  2.3487843625319460e+01  2.0899771702262449e+01  2.0404858635134929e+01  2.0337109095285733e+01  2.0942161315151555e+01  2.0757798026574655e+01  2.0434538334926025e+01  2.0024811672115785e+01  2.0467565261124925e+01  2.1138011469598489e+01  2.4164232117075262e+01  2.3848452444443666e+01  2.0294748140985998e+01  2.0328241802759599e+01  2.0414885345886375e+01  2.0887311881643413e+01  2.0246020749873736e+01  2.4001415043162215e+01  2.2619799554482078e+01  2.2172838127369634e+01  2.2920498172794677e+01  2.2734096768717510e+01  2.4647890488737218e+01  2.0019844414973090e+01  2.7655363840959598e+01  2.7578290634363373e+01  2.7576796715076796e+01  2.0025070203311714e+01  2.0020106011019422e+01  2.0096312900057193e+01  2.2061390582970251e+01  2.0136271735339932e+01  2.3053009862192486e+01  2.0202468578701325e+01  2.0094274456659640e+01  2.0084668793652707e+01  2.1958941588622480e+01  2.1823061016601038e+01  2.1899395317507938e+01  2.0400737342855976e+01  2.7706346245948680e+01  2.1745034555176474e+01  2.0082110927336185e+01  2.0049100417399149e+01  2.1812250298426701e+01  2.0599130606365318e+01  2.1569213064140168e+01  2.4506409907010937e+01  2.2590567842843534e+01  2.0084577155092855e+01  2.2622452166214693e+01  2.0303796672957777e+01  2.0154002137768721e+01  2.0165160738727600e+01  2.0114604700097470e+01  2.5571357126924443e+01  2.0591759933212295e+01  2.6979658184002961e+01  2.0127259470708406e+01  2.2090732516856558e+01  2.0149316475366959e+01  2.2913518142710544e+01  2.1829806571781621e+01  2.0021299829148930e+01  2.0695559222469505e+01  2.6844214064246007e+01  2.0187123836832193e+01  2.0072879835397742e+01  2.0365018030972195e+01  2.3956990260420259e+01  2.1777137967851722e+01  2.0287181982462894e+01  2.0731028831377344e+01  2.0529530119558366e+01  2.0458383482646312e+01  2.5658493833812553e+01  2.3578811303521391e+01  2.1506603399475591e+01  2.0525751768558091e+01  2.0204897267679076e+01  2.0373205102068596e+01  2.0535493405665406e+01  2.0532532778298179e+01  2.2111175152926197e+01  2.2716135220138291e+01  2.1682629588409860e+01  2.0087611319770282e+01  2.2594121621098360e+01  2.0137405627112855e+01  2.4636930330117281e+01  2.2395671080618360e+01  2.2467180509532724e+01  2.2396803456411586e+01  2.2692085905461344e+01  2.0274709063575418e+01  2.1109111003737617e+01  2.0274251443414613e+01  2.0268199759679554e+01  2.0230309354308925e+01  2.0664772286733257e+01  2.0040075087538700e+01  2.0115173863260992e+01  2.0806181525569166e+01  2.6981526295813556e+01  2.7213064246850529e+01  2.6175596143658364e+01  2.0674329347303420e+01  2.1864215112689767e+01  2.1704682817041775e+01  2.0283632181196744e+01  2.0377353714255602e+01  2.5800432717613827e+01  2.3628417009511960e+01  2.0045347288696430e+01  2.2499937833374613e+01  2.2835902876699375e+01  2.0206585092399269e+01  2.5500540968271629e+01  2.0394833485586563e+01  2.3070497032962852e+01  2.0337175830821081e+01  2.3251871563682251e+01  2.0987826890607860e+01  2.1054617073941870e+01  2.0436435507545387e+01  2.4294353198736129e+01  2.0556801018132454e+01  2.0266454692904059e+01  2.0468175083779798e+01  2.0430041299947323e+01  2.3948227523045386e+01  2.0550164929540379e+01  2.0722390147919395e+01  2.3395213978370940e+01  2.0829726694194505e+01  2.0291553518646516e+01  2.2767474830409057e+01  2.0019036217042835e+01  2.7686337057372963e+01  2.275