<?xml version="1.0"?>
<VTKFile type="UnstructuredGrid"  version="0.1"  >
<UnstructuredGrid>
<Piece  NumberOfPoints="2331" NumberOfCells="4248">
<Points>
<DataArray  type="Float64"  NumberOfComponents="3"  format="ascii">0 0.3 0  0 0 0  0.04999999999999999 0 0  0.0514582251803892 0.02410733605106462 0  0.0558116365147896 0.04786313285751154 0  0.06299675146291706 0.07092097740850717 0  0.07290879486935808 0.09294463440875382 0  0.08540322682126872 0.1136129493462312 0  0.1002978503657798 0.132624531648159 0  0.117375468351841 0.1497021496342203 0  0.1363870506537689 0.1645967731787313 0  0.1570553655912463 0.177091205130642 0  0.1790790225914929 0.187003248537083 0  0.2021368671424885 0.1941883634852104 0  0.2258926639489354 0.1985417748196108 0  0.25 0.2 0  0.2741073360510646 0.1985417748196108 0  0.2978631328575116 0.1941883634852104 0  0.3209209774085071 0.187003248537083 0  0.3429446344087537 0.177091205130642 0  0.3636129493462312 0.1645967731787313 0  0.3826245316481591 0.1497021496342202 0  0.3997021496342202 0.132624531648159 0  0.4145967731787313 0.1136129493462312 0  0.427091205130642 0.09294463440875371 0  0.4370032485370829 0.07092097740850713 0  0.4441883634852104 0.04786313285751155 0  0.4485417748196108 0.02410733605106461 0  0.45 0 0  0.55 0 0  0.5514582251803892 0.02410733605106462 0  0.5558116365147896 0.04786313285751154 0  0.5629967514629171 0.07092097740850717 0  0.5729087948693581 0.09294463440875382 0  0.5854032268212688 0.1136129493462312 0  0.6002978503657798 0.132624531648159 0  0.617375468351841 0.1497021496342203 0  0.6363870506537689 0.1645967731787313 0  0.6570553655912463 0.177091205130642 0  0.6790790225914929 0.187003248537083 0  0.7021368671424885 0.1941883634852104 0  0.7258926639489354 0.1985417748196108 0  0.75 0.2 0  0.7741073360510646 0.1985417748196108 0  0.7978631328575116 0.1941883634852104 0  0.8209209774085071 0.187003248537083 0  0.8429446344087537 0.177091205130642 0  0.8636129493462312 0.1645967731787313 0  0.8826245316481591 0.1497021496342202 0  0.8997021496342202 0.132624531648159 0  0.9145967731787312 0.1136129493462312 0  0.927091205130642 0.09294463440875371 0  0.9370032485370829 0.07092097740850713 0  0.9441883634852104 0.04786313285751155 0  0.9485417748196108 0.02410733605106461 0  0.95 0 0  1 0 0  1 0.3 0  0.9758926639489353 0.3014582251803892 0  0.9521368671424885 0.3058116365147896 0  0.9290790225914928 0.3129967514629171 0  0.9070553655912461 0.3229087948693581 0  0.8863870506537688 0.3354032268212687 0  0.867375468351841 0.3502978503657798 0  0.8502978503657798 0.367375468351841 0  0.8354032268212687 0.3863870506537689 0  0.822908794869358 0.4070553655912464 0  0.8129967514629171 0.4290790225914929 0  0.8058116365147896 0.4521368671424885 0  0.8014582251803892 0.4758926639489354 0  0.8 0.4999999999999999 0  0.8014582251803892 0.5241073360510646 0  0.8058116365147896 0.5478631328575115 0  0.8129967514629171 0.5709209774085071 0  0.8229087948693581 0.5929446344087538 0  0.8354032268212688 0.6136129493462312 0  0.8502978503657798 0.632624531648159 0  0.867375468351841 0.6497021496342202 0  0.8863870506537689 0.6645967731787313 0  0.9070553655912463 0.677091205130642 0  0.9290790225914929 0.6870032485370829 0  0.9521368671424885 0.6941883634852104 0  0.9758926639489354 0.6985417748196108 0  1 0.7 0  1 1 0  0.95 1 0  0.9485417748196108 0.9758926639489353 0  0.9441883634852104 0.9521368671424885 0  0.9370032485370829 0.9290790225914928 0  0.927091205130642 0.9070553655912463 0  0.9145967731787312 0.8863870506537688 0  0.8997021496342201 0.8673754683518409 0  0.882624531648159 0.8502978503657798 0  0.863612949346231 0.8354032268212686 0  0.8429446344087537 0.822908794869358 0  0.8209209774085071 0.8129967514629171 0  0.7978631328575114 0.8058116365147896 0  0.7741073360510646 0.8014582251803892 0  0.75 0.8 0  0.7258926639489353 0.8014582251803892 0  0.7021368671424885 0.8058116365147896 0  0.6790790225914928 0.8129967514629171 0  0.6570553655912461 0.8229087948693581 0  0.6363870506537688 0.8354032268212688 0  0.617375468351841 0.8502978503657798 0  0.6002978503657798 0.867375468351841 0  0.5854032268212687 0.8863870506537689 0  0.572908794869358 0.9070553655912463 0  0.5629967514629171 0.9290790225914929 0  0.5558116365147896 0.9521368671424885 0  0.5514582251803892 0.9758926639489355 0  0.55 0.9999999999999999 0  0.45 0.9999999999999999 0  0.4485417748196108 0.9758926639489353 0  0.4441883634852104 0.9521368671424885 0  0.4370032485370829 0.9290790225914928 0  0.427091205130642 0.9070553655912463 0  0.4145967731787313 0.8863870506537688 0  0.3997021496342201 0.8673754683518409 0  0.382624531648159 0.8502978503657798 0  0.363612949346231 0.8354032268212686 0  0.3429446344087536 0.822908794869358 0  0.3209209774085071 0.8129967514629171 0  0.2978631328575115 0.8058116365147896 0  0.2741073360510646 0.8014582251803892 0  0.25 0.8 0  0.2258926639489353 0.8014582251803892 0  0.2021368671424885 0.8058116365147896 0  0.1790790225914928 0.8129967514629171 0  0.1570553655912462 0.8229087948693581 0  0.1363870506537688 0.8354032268212688 0  0.117375468351841 0.8502978503657798 0  0.1002978503657797 0.867375468351841 0  0.08540322682126869 0.8863870506537689 0  0.07290879486935797 0.9070553655912463 0  0.06299675146291703 0.9290790225914929 0  0.05581163651478957 0.9521368671424885 0  0.0514582251803892 0.9758926639489355 0  0.04999999999999999 0.9999999999999999 0  0 1 0  -0 0.7000000000000001 0  0.0241073360510646 0.6985417748196108 0  0.04786313285751161 0.6941883634852104 0  0.07092097740850711 0.6870032485370829 0  0.09294463440875372 0.677091205130642 0  0.1136129493462312 0.6645967731787312 0  0.1326245316481591 0.6497021496342202 0  0.1497021496342202 0.632624531648159 0  0.1645967731787313 0.6136129493462312 0  0.177091205130642 0.5929446344087537 0  0.187003248537083 0.5709209774085071 0  0.1941883634852104 0.5478631328575115 0  0.1985417748196108 0.5241073360510646 0  0.2 0.5 0  0.1985417748196108 0.4758926639489353 0  0.1941883634852104 0.4521368671424885 0  0.1870032485370829 0.4290790225914928 0  0.177091205130642 0.4070553655912463 0  0.1645967731787313 0.3863870506537688 0  0.1497021496342202 0.3673754683518409 0  0.132624531648159 0.3502978503657798 0  0.113612949346231 0.3354032268212686 0  0.09294463440875361 0.322908794869358 0  0.07092097740850711 0.3129967514629171 0  0.04786313285751148 0.3058116365147896 0  0.02410733605106464 0.3014582251803892 0  0.6985417748196108 0.5241073360510646 0  0.7 0.5 0  0.6985417748196108 0.4758926639489353 0  0.6941883634852104 0.4521368671424885 0  0.6870032485370829 0.4290790225914928 0  0.677091205130642 0.4070553655912463 0  0.6645967731787312 0.3863870506537688 0  0.6497021496342201 0.3673754683518409 0  0.632624531648159 0.3502978503657798 0  0.613612949346231 0.3354032268212686 0  0.5929446344087537 0.322908794869358 0  0.5709209774085071 0.3129967514629171 0  0.5478631328575114 0.3058116365147896 0  0.5241073360510646 0.3014582251803892 0  0.4999999999999999 0.3 0  0.4758926639489353 0.3014582251803892 0  0.4521368671424885 0.3058116365147896 0  0.4290790225914928 0.3129967514629171 0  0.4070553655912462 0.3229087948693581 0  0.3863870506537688 0.3354032268212687 0  0.367375468351841 0.3502978503657798 0  0.3502978503657798 0.367375468351841 0  0.3354032268212687 0.3863870506537689 0  0.322908794869358 0.4070553655912464 0  0.3129967514629171 0.4290790225914929 0  0.3058116365147896 0.4521368671424885 0  0.3014582251803892 0.4758926639489354 0  0.3 0.4999999999999999 0  0.3014582251803892 0.5241073360510646 0  0.3058116365147896 0.5478631328575115 0  0.3129967514629171 0.5709209774085071 0  0.3229087948693581 0.5929446344087538 0  0.3354032268212687 0.6136129493462312 0  0.3502978503657798 0.632624531648159 0  0.367375468351841 0.6497021496342202 0  0.3863870506537689 0.6645967731787313 0  0.4070553655912463 0.677091205130642 0  0.4290790225914929 0.6870032485370829 0  0.4521368671424885 0.6941883634852104 0  0.4758926639489354 0.6985417748196108 0  0.4999999999999999 0.7 0  0.5241073360510646 0.6985417748196108 0  0.5478631328575116 0.6941883634852104 0  0.5709209774085071 0.6870032485370829 0  0.5929446344087537 0.677091205130642 0  0.6136129493462312 0.6645967731787312 0  0.6326245316481591 0.6497021496342202 0  0.6497021496342202 0.632624531648159 0  0.6645967731787312 0.6136129493462312 0  0.677091205130642 0.5929446344087537 0  0.6870032485370829 0.5709209774085071 0  0.6941883634852104 0.5478631328575115 0  0 0.15 0  1 0.15 0  1 0.85 0  0 0.8500000000000001 0  0 0.075 0  1 0.075 0  1 0.925 0  0 0.925 0  0.5 0.8127595604293815 0  0.5069440078039168 0.190422209288238 0  0.25 0.3127595604293815 0  0.756944007803917 0.3095777907117619 0  0.756944007803917 0.6904222092882382 0  0.25 0.6872404395706185 0  0 0.225 0  0.4255768646051012 0.2241073097134061 0  1 0.7749999999999999 0  0.6773391559270888 0.2766774022734219 0  1 0.225 0  0.6755768646051011 0.7241073097134062 0  0 0.7750000000000001 0  0.5818971135297744 0.2287925518358889 0  0.8318971135297746 0.728792551835889 0  0.1659156081861886 0.7301636995921477 0  0.08376842746533225 0.2299656297760495 0  0.4236002201977974 0.7746535834185855 0  0.0840843918138115 0.7698363004078523 0  0.3340843918138113 0.7301636995921477 0  0.3340843918138114 0.2698363004078523 0  0.9159156081861887 0.2301636995921477 0  0.5840843918138116 0.7698363004078522 0  0.1659156081861887 0.2698363004078523 0  0.9162315725346678 0.7700343702239506 0  0.8340843918138114 0.2698363004078523 0  0.75 0.6146645247768686 0  0.5 0.1125158665330878 0  0.75 0.3874841334669124 0  0.2504983345544904 0.6122915843562002 0  0.2504983345544902 0.3877084156437999 0  0.5 0.8879783056303169 0  0.7005361650220154 0.3333055947145943 0  0.70416808765371 0.6599554817221275 0  0.449930214263529 0.1678187287522426 0  0.2247310981387008 0.7415600637745463 0  0.5155081196221678 0.7563797802146907 0  0.2752689018612993 0.2584399362254537 0  0.05605196690611226 0.8246131191226815 0  0.9439480330938878 0.1
[...]
<PointData  Scalars="Temperature"> 
<DataArray  type="Float64"  Name="Temperature"  format="ascii">2.6547065438166914e+01  2.7551224400342093e+01  2.7544674209934776e+01  2.7528045394520191e+01  2.7480235495987472e+01  2.7402551141360863e+01  2.7293614945777655e+01  2.7150998712269612e+01  2.6976621631504813e+01  2.6769343055230124e+01  2.6525587869309636e+01  2.6248848300777645e+01  2.5946201281253625e+01  2.5622633611617690e+01  2.5282564708961946e+01  2.4936888895644874e+01  2.4591727579120558e+01  2.4252116720482743e+01  2.3931612845404569e+01  2.3628066441003764e+01  2.3353063735724451e+01  2.3109155326147263e+01  2.2892968239432648e+01  2.2715406614156755e+01  2.2572431944873411e+01  2.2469712123832565e+01  2.2396350756709946e+01  2.2356543487088054e+01  2.2343096316783182e+01  2.2050070697314027e+01  2.2033907240103460e+01  2.1984638439928492e+01  2.1899510213819720e+01  2.1784688281340095e+01  2.1639786692406471e+01  2.1475826173763533e+01  2.1305927405366827e+01  2.1133163590235512e+01  2.0966534525181817e+01  2.0812007319901735e+01  2.0672994570390610e+01  2.0551719570609293e+01  2.0448667159501607e+01  2.0362552191266477e+01  2.0291625294364849e+01  2.0235026865208628e+01  2.0189827445681786e+01  2.0154827488226765e+01  2.0128193267129340e+01  2.0108419894478079e+01  2.0094213103531530e+01  2.0084312184237845e+01  2.0077805999775563e+01  2.0073623391555337e+01  2.0071262959811961e+01  2.0070488864648517e+01  2.0068553505984990e+01  2.0079113439508195e+01  2.0083931007950913e+01  2.0097174121433081e+01  2.0117177772383371e+01  2.0141945280648397e+01  2.0169760760210387e+01  2.0197870380263602e+01  2.0225089693113599e+01  2.0248192873345953e+01  2.0266138474106921e+01  2.0275369931139551e+01  2.0277195911946293e+01  2.0271046225679683e+01  2.0258569005827503e+01  2.0242506326293878e+01  2.0222204269161647e+01  2.0198933835695218e+01  2.0174329454050504e+01  2.0148754996967465e+01  2.0123578561103024e+01  2.0100839036541785e+01  2.0080271032125879e+01  2.0063138693247353e+01  2.0049322763259656e+01  2.0039137964689907e+01  2.0032756206702814e+01  2.0030419596255101e+01  2.0011658858168786e+01  2.0011955375535386e+01  2.0012443442983177e+01  2.0013796056572609e+01  2.0015974958838044e+01  2.0019098102786224e+01  2.0023541160125550e+01  2.0029677863922299e+01  2.0037905561498501e+01  2.0048783428585850e+01  2.0062994079350020e+01  2.0081104807676319e+01  2.0103205703518942e+01  2.0129723519307081e+01  2.0159839364530445e+01  2.0193810371534187e+01  2.0229651449808802e+01  2.0266879901216466e+01  2.0301844170401047e+01  2.0333704625773287e+01  2.0359060297990339e+01  2.0377148670447280e+01  2.0384598794433838e+01  2.0383981417761031e+01  2.0375120887934500e+01  2.0361436702351725e+01  2.0349781830614326e+01  2.0344921149047405e+01  2.0392394937151796e+01  2.0406408671392562e+01  2.0442487088356412e+01  2.0497662738391398e+01  2.0570604599049407e+01  2.0662088603469659e+01  2.0769942534031763e+01  2.0894276307340782e+01  2.1031137572616757e+01  2.1180403831116731e+01  2.1334683619625583e+01  2.1488635537917467e+01  2.1634898828780933e+01  2.1764407409113382e+01  2.1870885216626235e+01  2.1945885557492744e+01  2.1986905014250013e+01  2.1992379852416583e+01  2.1961093558570809e+01  2.1901010379396933e+01  2.1814127687952311e+01  2.1706909161072517e+01  2.1589490244162459e+01  2.1472581070447582e+01  2.1367837797508741e+01  2.1293259295286855e+01  2.1261743883186682e+01  2.1262802844883083e+01  2.2513035634072171e+01  2.2515334063335896e+01  2.2524918490987712e+01  2.2541197546571535e+01  2.2564996294325336e+01  2.2597260111772293e+01  2.2640493157404606e+01  2.2699693265223146e+01  2.2775829148147388e+01  2.2869278713841314e+01  2.2990194740735408e+01  2.3135902849985897e+01  2.3308990894897164e+01  2.3504447294027827e+01  2.3721610697206607e+01  2.3959530223206468e+01  2.4218957451038207e+01  2.4500735038116233e+01  2.4803038774589076e+01  2.5115584487516454e+01  2.5427569647354755e+01  2.5724569581797862e+01  2.5995637394156521e+01  2.6226255725442556e+01  2.6399269250347245e+01  2.6509253695563814e+01  2.0300174801615167e+01  2.0316086185417671e+01  2.0339682333589415e+01  2.0371883235017972e+01  2.0414810984772313e+01  2.0471227113728482e+01  2.0544183287438074e+01  2.0636340498215080e+01  2.0751647418331924e+01  2.0889322653584749e+01  2.1053435775996604e+01  2.1245528508025696e+01  2.1463883496281216e+01  2.1707450781236044e+01  2.1970943577397076e+01  2.2248284794489887e+01  2.2528581764062558e+01  2.2805262857079097e+01  2.3059436615238269e+01  2.3289666914530830e+01  2.3475617741808982e+01  2.3614587467056143e+01  2.3693431954326424e+01  2.3718597615657913e+01  2.3678720914288700e+01  2.3588691628240589e+01  2.3450054548498620e+01  2.3276401052901015e+01  2.3078861244846468e+01  2.2863917497252963e+01  2.2641473480391319e+01  2.2408513131442927e+01  2.2177558764762178e+01  2.1950486932214890e+01  2.1731950534001452e+01  2.1527669869554913e+01  2.1336688046406355e+01  2.1165178120955449e+01  2.1010828860735181e+01  2.0875925213932351e+01  2.0758021612499199e+01  2.0656998853951080e+01  2.0570969261915291e+01  2.0500208560383953e+01  2.0441463172427920e+01  2.0393680652927447e+01  2.0355847135703325e+01  2.0327075472436682e+01  2.0306541144646697e+01  2.0294111140714058e+01  2.0288869235508045e+01  2.0291173755722674e+01  2.7165509515975245e+01  2.0076788788705326e+01  2.0020041802072026e+01  2.1822068334695388e+01  2.7444254017845154e+01  2.0071677283228340e+01  2.0014333348572983e+01  2.1449799414286751e+01  2.0607423473214588e+01  2.2013699140534065e+01  2.4564409289553513e+01  2.0389124040686109e+01  2.0182724272003590e+01  2.2175542595014349e+01  2.6798296001170769e+01  2.2805415403281490e+01  2.0026242744752455e+01  2.0698696582332641e+01  2.0078184172614780e+01  2.0286617728635957e+01  2.2246903112406905e+01  2.1330382031800077e+01  2.0095184308100343e+01  2.2275854262504964e+01  2.6533093452855358e+01  2.0960591425265218e+01  2.2231532775020728e+01  2.1538602761855593e+01  2.3784623126446348e+01  2.0118640029829844e+01  2.0443479500753934e+01  2.5667626420878836e+01  2.0041575702197488e+01  2.0226836781051460e+01  2.0224967408425503e+01  2.2154713058478862e+01  2.0360949206005333e+01  2.2614371612414775e+01  2.4143803483992365e+01  2.0479468409776125e+01  2.0541608964858419e+01  2.0266112753414443e+01  2.2575770974008979e+01  2.2018724469221013e+01  2.0650368328260548e+01  2.4507021507550306e+01  2.1959556191819669e+01  2.0094385311473577e+01  2.6949708344046481e+01  2.0026853718785475e+01  2.2165573342682258e+01  2.0195094113618623e+01  2.0486742792850279e+01  2.0740874418684093e+01  2.2475705110690310e+01  2.5087109636296709e+01  2.1932320039055696e+01  2.3919457967312589e+01  2.0448223890388444e+01  2.2184677341985264e+01  2.0323291378630575e+01  2.0259534570354084e+01  2.3788409019571230e+01  2.3060549897324591e+01  2.0367306187280438e+01  2.0402838045769837e+01  2.5114820717704731e+01  2.1801830431650941e+01  2.1576229585027114e+01  2.0160835413694180e+01  2.0260978847521489e+01  2.0948856886891317e+01  2.3155149448637395e+01  2.3519582644715690e+01  2.0328678920541840e+01  2.0408795451390279e+01  2.0952546415166285e+01  2.0138127887911867e+01  2.0331211432859323e+01  2.0290146019843661e+01  2.2194697023833207e+01  2.3431830639010471e+01  2.1208461359395240e+01  2.1291458737406746e+01  2.1721796411252882e+01  2.0064373062875106e+01  2.0062998047321905e+01  2.0774286326319526e+01  2.6179320109400269e+01  2.2384191576964231e+01  2.0137860188065655e+01  2.2139918870118553e+01  2.6078081829592243e+01  2.2408839039812673e+01  2.0088804578314583e+01  2.0178325708123776e+01  2.0033844533517378e+01  2.6569797400730540e+01  2.0083524769360732e+01  2.0020167543710297e+01  2.7223430162795154e+01  2.1728174594801349e+01  2.0291372162737773e+01  2.0131964542133090e+01  2.1810905178417197e+01  2.0235474136875130e+01  2.0380384311660595e+01  2.1631056186984218e+01  2.5576381314917697e+01  2.0126465171897415e+01  2.3541254804779122e+01  2.2509761309192772e+01  2.2016756574736824e+01  2.6678257444426698e+01  2.0041175337724074e+01  2.2658933400076691e+01  2.4624704503495469e+01  2.0489493482205312e+01  2.0098232617388152e+01  2.4151863211546367e+01  2.2271439306069141e+01  2.0658417910075805e+01  2.0745444249634641e+01  2.0958784540277929e+01  2.2564195652205608e+01  2.0344626563002372e+01  2.3094013613373864e+01  2.0256607912924007e+01  2.0598847116304306e+01  2.0951153337073450e+01  2.1337839822011357e+01  2.0526842399013034e+01  2.0101706040103778e+01  2.1172730410454442e+01  2.2051246333422444e+01  2.4017011323376686e+01  2.1535372226550432e+01  2.5590425369968312e+01  2.0197751157161470e+01  2.0509109451038366e+01  2.2375587853485367e+01  2.6788529528148025e+01  2.0248001393487506e+01  2.0091614080741749e+01  2.2176949230754310e+01  2.0544208596569060e+01  2.2034087675413915e+01  2.0077929798123925e+01  2.0295011854941546e+01  2.0027197130966481e+01  2.2484583400521561e+01  2.0412971540710387e+01  2.0465044730205669e+01  2.2219887814180392e+01  2.6987674479894178e+01  2.0219316240761337e+01  2.0269614858774752e+01  2.0201593134683311e+01  2.2911370725048336e+01  2.4271808335543216e+01  2.2314832543853250e+01  2.3847282450867318e+01  2.2449123057973175e+01  2.2343326668071622e+01  2.2007107641911372e+01  2.0303386325645288e+01  2.0393482410634530e+01  2.0414261732662059e+01  2.0403914083647052e+01  2.0499512175848334e+01  2.0023209300699996e+01  2.2428689363957325e+01  2.0017051501295352e+01  2.0078032129013522e+01  2.6628664320932103e+01  2.0069388033527378e+01  2.7523758444425244e+01  2.0074471915120963e+01  2.0076679850917184e+01  2.7321204304985361e+01  2.0012395218948399e+01  2.1317308638397506e+01  2.0029020330028096e+01  2.1624188592913082e+01  2.1545082916948591e+01  2.3819432583516289e+01  2.2735452918191449e+01  2.2232822525980868e+01  2.4123233153964559e+01  2.0611057197057452e+01  2.0046058363834000e+01  2.1752405719291176e+01  2.5068751219395899e+01  2.0152356952898511e+01  2.0182745241283804e+01  2.0794240124504594e+01  2.0028972607568981e+01  2.0539310659681217e+01  2.1840697842411011e+01  2.2426984023993676e+01  2.4504697964235621e+01  2.6045368778185846e+01  2.1136848785814749e+01  2.1852861874508299e+01  2.0386244505037229e+01  2.0337981221023181e+01  2.0610628267996212e+01  2.0288527919332161e+01  2.0318369370427568e+01  2.0016388391326139e+01  2.7369736613824681e+01  2.6395799576416675e+01  2.0125743375054999e+01  2.1948615918308963e+01  2.4972961822412042e+01  2.0174706192044692e+01  2.1567333864947091e+01  2.0254429111685784e+01  2.0109832022145337e+01  2.0564638927414176e+01  2.3159329120385792e+01  2.0345280016394589e+01  2.1092923004109288e+01  2.7482101398052706e+01  2.0072799199492398e+01  2.0013590334935824e+01  2.1381649930934849e+01  2.1108702947841245e+01  2.0273482640989712e+01  2.2476819578865722e+01  2.1820798221348788e+01  2.1926043042604974e+01  2.0098233943732136e+01  2.0081180390125279e+01  2.1332591286855813e+01  2.6910159258244878e+01  2.6751455147852418e+01  2.7058183324126894e+01  2.2876291317314980e+01  2.2682311625855746e+01  2.6362504893694570e+01  2.0716907425790382e+01  2.2527102921495072e+01  2.2029965506179284e+01  2.0160924430647505e+01  2.0629771214031585e+01  2.0397781795349989e+01  2.3422704091483045e+01  2.0400748937309093e+01  2.0022804513567113e+01  2.0295928682003247e+01  2.0224075321412201e+01  2.1355908311092257e+01  2.0366630303177434e+01  2.0219845922961614e+01  2.2274913409281329e+01  2.2110360312387577e+01  2.0287868545408951e+01  2.0341775137939965e+01  2.3538834185871711e+01  2.3798395535570776e+01  2.0588388186487371e+01  2.0075471029014121e+01  2.0411667507248467e+01  2.0895532588562400e+01  2.4144968663564462e+01  2.1435300562819940e+01  2.5326762511650056e+01  2.1751972950111004e+01  2.1877651822654261e+01  2.2185437066864957e+01  2.4423272077743515e+01  2.4714561640628496e+01  2.2045358677577145e+01  2.0442319503356234e+01  2.0404033143879111e+01  2.4226308307386123e+01  2.2383293552317898e+01  2.3754900645622762e+01  2.5246402078731567e+01  2.1855441418405036e+01  2.2653015569804733e+01  2.0518782125408858e+01  2.0289656386293494e+01  2.0260661855778832e+01  2.3218262899396613e+01  2.3303029481710361e+01  2.5895247296412229e+01  2.0239168614958430e+01  2.0208735435040637e+01  2.0193054370923186e+01  2.2840833878902934e+01  2.0285176315725199e+01  2.0638101607245353e+01  2.2888485775991576e+01  2.0710315865913987e+01  2.0832949561651130e+01  2.0469151805184069e+01  2.2122523430390796e+01  2.2095482954649093e+01  2.0542889207168798e+01  2.0783854606700583e+01  2.0032910945714828e+01  2.6389064822010429e+01  2.0249427266723423e+01  2.1585910262122656e+01  2.0071057220289433e+01  2.0054067982823753e+01  2.0316821172286449e+01  2.0240821829596342e+01  2.0205750510975687e+01  2.2048104082112555e+01  2.3236016348989114e+01  2.3474761055041750e+01  2.0332317977594343e+01  2.0375863751976187e+01  2.1186366016187506e+01  2.1367877455279601e+01  2.2019111240993272e+01  2.1133886831722450e+01  2.0147062694915288e+01  2.0245301433805533e+01  2.0108166075221202e+01  2.2082095121813570e+01  2.1582305983341715e+01  2.0011797411315733e+01  2.0069467030463194e+01  2.7548474925524644e+01  2.1261972567069161e+01  2.2276190900749608e+01  2.1133910278327061e+01  2.3538120024767633e+01  2.0838019491933640e+01  2.0300092538239831e+01  2.0168747251955661e+01  2.2042278676813929e+01  2.2330504412918760e+01  2.3983774656140209e+01  2.0308180625362201e+01  2.0081068800291309e+01  2.0070463949328019e+01  2.0053983064853405e+01  2.0082742967805341e+01  2.0465616976149558e+01  2.3780684924329027e+01  2.2826751817460444e+01  2.0376247664103385e+01  2.0351158635930702e+01  2.0440080119211039e+01  2.0383318999123340e+01  2.0232933631228338e+01  2.3132933193193274e+01  2.2923614822181555e+01  2.5812565091550564e+01  2.3809635677434734e+01  2.1107701934466611e+01  2.6299456093548194e+01  2.2346063361968490e+01  2.1379191560622385e+01  2.0344415346783169e+01  2.6713462004983217e+01  2.2702272085696265e+01  2.0153401959107249e+01  2.0168964814019812e+01  2.0031960034405714e+01  2.2127302776758814e+01  2.5431303905360263e+01  2.1664418842434934e+01  2.2164595285201646e+01  2.2277096505272873e+01  2.2233862135295524e+01  2.3577857813202773e+01  2.0317566827024102e+01  2.7076885941910181e+01  2.0049152874271634e+01  2.4011450947599499e+01  2.0887650892050438e+01  2.2139505025149678e+01  2.0082241521446296e+01  2.0192468776688113e+01  2.0675741470391952e+01  2.3608073835797008e+01  2.0382834342282596e+01  2.4936274054005501e+01  2.0293315650832060e+01  2.0028645831461699e+01  2.2503507953927187e+01  2.0836330996442783e+01  2.3664842250827363e+01  2.0138322592936124e+01  2.2172278906568867e+01  2.0070663897813809e+01  2.1300612702464111e+01  2.7529094775643703e+01  2.0012338023000741e+01  2.1888187377476591e+01  2.0353007017517065e+01  2.0058169973646468e+01  2.0208375340138822e+01  2.2403224942978014e+01  2.0746415259893919e+01  2.0107511334562272e+01  2.0444171708437725e+01  2.6477332327053649e+01  2.2573096384201296e+01  2.2347403321472580e+01  2.2069023453370889e+01  2.0276435216494452e+01  2.1257241393356111e+01  2.1465072526830248e+01  2.2484265971433597e+01  2.0089695567164924e+01  2.2278459575616271e+01  2.0282784055065331e+01  2.1795534298251862e+01  2.4731030073481381e+01  2.2539841093493948e+01  2.0122240882952987e+01  2.4805561998875273e+01  2.0707162115206415e+01  2.0111903680802204e+01  2.0164362149089580e+01  2.0161910579521372e+01  2.0459475295101790e+01  2.0457642558235861e+01  2.0034910513248342e+01  2.1962132430552533e+01  2.5393931167424221e+01  2.1581810507671868e+01  2.0548297843997737e+01  2.0286142726605124e+01  2.2520108346405490e+01  2.2108939896553775e+01  2.0025331441049985e+01  2.4392514991077743e+01  2.2082824033163728e+01  2.2096351906956034e+01  2.0384280808535191e+01  2.2295921958733548e+01  2.1809057866047617e+01  2.5778203958110677e+01  2.0115916968285106e+01  2.1932805046144438e+01  2.2344897694739057e+01  2.0100080143798557e+01  2.0078240023461980e+01  2.0082600153432487e+01  2.0034274441358487e+01  2.6928947752866996e+01  2.1043660580390370e+01  2.4537894346897641e+01  2.0433755458353822e+01  2.1938509399244435e+01  2.1512158383792571e+01  2.0976232328817286e+01  2.2376654457335118e+01  2.3945452852733897e+01  2.4855951573462864e+01  2.0158886048507043e+01  2.1629672637612124e+01  2.0086763647764041e+01  2.0091627149226202e+01  2.2517653366342834e+01  2.0904273489127277e+01  2.6133838835872186e+01  2.0128677414651769e+01  2.5893006767961367e+01  2.6132460811264124e+01  2.0038421096148884e+01  2.0031453502989979e+01  2.6562505605024217e+01  2.6640576740423921e+01  2.3299271131387474e+01  2.0849605878168919e+01  2.0383415894529016e+01  2.0317250520646834e+01  2.0890290050355762e+01  2.0716258681843630e+01  2.0409251772424231e+01  2.0023128189171302e+01  2.0439893721180272e+01  2.1074404489660193e+01  2.3932934854588112e+01  2.3639313131326144e+01  2.0276815452500536e+01  2.0310162817064100e+01  2.0389466143893490e+01  2.0838813131926539e+01  2.0232629215392322e+01  2.3776791250179947e+01  2.2484406708365182e+01  2.2055123547137093e+01  2.2769958358264475e+01  2.2589317109961097e+01  2.4396709275875669e+01  2.0018508795738907e+01  2.7246814257883827e+01  2.7173935252127983e+01  2.7171844982603648e+01  2.0023493641623794e+01  2.0018831054133582e+01  2.0090184323077157e+01  2.1945231983745600e+01  2.0128011986151410e+01  2.2889258224582534e+01  2.0190359765006797e+01  2.0088625916996204e+01  2.0079424357116277e+01  2.1850186190537855e+01  2.1721118259506913e+01  2.1793807972780293e+01  2.0376076429804872e+01  2.7294219879156476e+01  2.1646481868925214e+01  2.0077165467154472e+01  2.0045934845866334e+01  2.1708768610625555e+01  2.0565606797585293e+01  2.1480697246132557e+01  2.4260926179675327e+01  2.2451397156236968e+01  2.0078550703472295e+01  2.2488950674498753e+01  2.0288128328739788e+01  2.0144740762463080e+01  2.0155381968152394e+01  2.0107530268993465e+01  2.5275064236386203e+01  2.0558161227758454e+01  2.6607117041023695e+01  2.0119422055989375e+01  2.1973326615696180e+01  2.0140888579378945e+01  2.2759767628190716e+01  2.1726486406925645e+01  2.0019877939458659e+01  2.0656641111287566e+01  2.6475213425757186e+01  2.0175667821043056e+01  2.0068648299305988e+01  2.0344584749825483e+01  2.3745633916641154e+01  2.1677364881217727e+01  2.0270502398519945e+01  2.0690459556001016e+01  2.0499789146855012e+01  2.0434090775409775e+01  2.5355850293847094e+01  2.3381692704246113e+01  2.1421189824040258e+01  2.0497709536160247e+01  2.0191798196085010e+01  2.0351327670790884e+01  2.0506110901331514e+01  2.0501868247122701e+01  2.1992328095467546e+01  2.2577192186890521e+01  2.1589566105557910e+01  2.0081485773175743e+01  2.2461384719384483e+01  2.0128808255906115e+01  2.4385322439473530e+01  2.2266345158625096e+01  2.2336705099018605e+01  2.2268294083926083e+01  2.2550861162484917e+01  2.0258923413998062e+01  2.1048577037537182e+01  2.0259395839789878e+01  2.0253107226083547e+01  2.0217033135303911e+01  2.0628071625114387e+01  2.0037523299260290e+01  2.0108382050483186e+01  2.0760819853258887e+01  2.6608621458821958e+01  2.6828007473429778e+01  2.5846688925051005e+01  2.0634851806095337e+01  2.1761184883055837e+01  2.1610256761003416e+01  2.0266077524432745e+01  2.0354388539508044e+01  2.5489768120858166e+01  2.3423168639049031e+01  2.0042539325454985e+01  2.2360616611909723e+01  2.2679901841984002e+01  2.0193947465144603e+01  2.5206796904661584e+01  2.0374592281087214e+01  2.2906941917383197e+01  2.0318976708978294e+01  2.3083270948960138e+01  2.0932845993519681e+01  2.0995432921613677e+01  2.0410667967513156e+01  2.4068409988830922e+01  2.0527513410532734e+01  2.0250275525970533e+01  2.0442164096645062e+01  2.0406389763250640e+01  2.3728601992619918e+01  2.0518903452616183e+01  2.0680774451377250e+01  2.3211426072585297e+01  2.0784127184192659e+01  2.0275482701733026e+01  2.2611649456500899e+01  2.0017782760187160e+01  2.7275917005275176e+01  2.260