<?xml version="1.0"?>
<VTKFile type="UnstructuredGrid"  version="0.1"  >
<UnstructuredGrid>
<Piece  NumberOfPoints="2331" NumberOfCells="4248">
<Points>
<DataArray  type="Float64"  NumberOfComponents="3"  format="ascii">0 0.3 0  0 0 0  0.04999999999999999 0 0  0.0514582251803892 0.02410733605106462 0  0.0558116365147896 0.04786313285751154 0  0.06299675146291706 0.07092097740850717 0  0.07290879486935808 0.09294463440875382 0  0.08540322682126872 0.1136129493462312 0  0.1002978503657798 0.132624531648159 0  0.117375468351841 0.1497021496342203 0  0.1363870506537689 0.1645967731787313 0  0.1570553655912463 0.177091205130642 0  0.1790790225914929 0.187003248537083 0  0.2021368671424885 0.1941883634852104 0  0.2258926639489354 0.1985417748196108 0  0.25 0.2 0  0.2741073360510646 0.1985417748196108 0  0.2978631328575116 0.1941883634852104 0  0.3209209774085071 0.187003248537083 0  0.3429446344087537 0.177091205130642 0  0.3636129493462312 0.1645967731787313 0  0.3826245316481591 0.1497021496342202 0  0.3997021496342202 0.132624531648159 0  0.4145967731787313 0.1136129493462312 0  0.427091205130642 0.09294463440875371 0  0.4370032485370829 0.07092097740850713 0  0.4441883634852104 0.04786313285751155 0  0.4485417748196108 0.02410733605106461 0  0.45 0 0  0.55 0 0  0.5514582251803892 0.02410733605106462 0  0.5558116365147896 0.04786313285751154 0  0.5629967514629171 0.07092097740850717 0  0.5729087948693581 0.09294463440875382 0  0.5854032268212688 0.1136129493462312 0  0.6002978503657798 0.132624531648159 0  0.617375468351841 0.1497021496342203 0  0.6363870506537689 0.1645967731787313 0  0.6570553655912463 0.177091205130642 0  0.6790790225914929 0.187003248537083 0  0.7021368671424885 0.1941883634852104 0  0.7258926639489354 0.1985417748196108 0  0.75 0.2 0  0.7741073360510646 0.1985417748196108 0  0.7978631328575116 0.1941883634852104 0  0.8209209774085071 0.187003248537083 0  0.8429446344087537 0.177091205130642 0  0.8636129493462312 0.1645967731787313 0  0.8826245316481591 0.1497021496342202 0  0.8997021496342202 0.132624531648159 0  0.9145967731787312 0.1136129493462312 0  0.927091205130642 0.09294463440875371 0  0.9370032485370829 0.07092097740850713 0  0.9441883634852104 0.04786313285751155 0  0.9485417748196108 0.02410733605106461 0  0.95 0 0  1 0 0  1 0.3 0  0.9758926639489353 0.3014582251803892 0  0.9521368671424885 0.3058116365147896 0  0.9290790225914928 0.3129967514629171 0  0.9070553655912461 0.3229087948693581 0  0.8863870506537688 0.3354032268212687 0  0.867375468351841 0.3502978503657798 0  0.8502978503657798 0.367375468351841 0  0.8354032268212687 0.3863870506537689 0  0.822908794869358 0.4070553655912464 0  0.8129967514629171 0.4290790225914929 0  0.8058116365147896 0.4521368671424885 0  0.8014582251803892 0.4758926639489354 0  0.8 0.4999999999999999 0  0.8014582251803892 0.5241073360510646 0  0.8058116365147896 0.5478631328575115 0  0.8129967514629171 0.5709209774085071 0  0.8229087948693581 0.5929446344087538 0  0.8354032268212688 0.6136129493462312 0  0.8502978503657798 0.632624531648159 0  0.867375468351841 0.6497021496342202 0  0.8863870506537689 0.6645967731787313 0  0.9070553655912463 0.677091205130642 0  0.9290790225914929 0.6870032485370829 0  0.9521368671424885 0.6941883634852104 0  0.9758926639489354 0.6985417748196108 0  1 0.7 0  1 1 0  0.95 1 0  0.9485417748196108 0.9758926639489353 0  0.9441883634852104 0.9521368671424885 0  0.9370032485370829 0.9290790225914928 0  0.927091205130642 0.9070553655912463 0  0.9145967731787312 0.8863870506537688 0  0.8997021496342201 0.8673754683518409 0  0.882624531648159 0.8502978503657798 0  0.863612949346231 0.8354032268212686 0  0.8429446344087537 0.822908794869358 0  0.8209209774085071 0.8129967514629171 0  0.7978631328575114 0.8058116365147896 0  0.7741073360510646 0.8014582251803892 0  0.75 0.8 0  0.7258926639489353 0.8014582251803892 0  0.7021368671424885 0.8058116365147896 0  0.6790790225914928 0.8129967514629171 0  0.6570553655912461 0.8229087948693581 0  0.6363870506537688 0.8354032268212688 0  0.617375468351841 0.8502978503657798 0  0.6002978503657798 0.867375468351841 0  0.5854032268212687 0.8863870506537689 0  0.572908794869358 0.9070553655912463 0  0.5629967514629171 0.9290790225914929 0  0.5558116365147896 0.9521368671424885 0  0.5514582251803892 0.9758926639489355 0  0.55 0.9999999999999999 0  0.45 0.9999999999999999 0  0.4485417748196108 0.9758926639489353 0  0.4441883634852104 0.9521368671424885 0  0.4370032485370829 0.9290790225914928 0  0.427091205130642 0.9070553655912463 0  0.4145967731787313 0.8863870506537688 0  0.3997021496342201 0.8673754683518409 0  0.382624531648159 0.8502978503657798 0  0.363612949346231 0.8354032268212686 0  0.3429446344087536 0.822908794869358 0  0.3209209774085071 0.8129967514629171 0  0.2978631328575115 0.8058116365147896 0  0.2741073360510646 0.8014582251803892 0  0.25 0.8 0  0.2258926639489353 0.8014582251803892 0  0.2021368671424885 0.8058116365147896 0  0.1790790225914928 0.8129967514629171 0  0.1570553655912462 0.8229087948693581 0  0.1363870506537688 0.8354032268212688 0  0.117375468351841 0.8502978503657798 0  0.1002978503657797 0.867375468351841 0  0.08540322682126869 0.8863870506537689 0  0.07290879486935797 0.9070553655912463 0  0.06299675146291703 0.9290790225914929 0  0.05581163651478957 0.9521368671424885 0  0.0514582251803892 0.9758926639489355 0  0.04999999999999999 0.9999999999999999 0  0 1 0  -0 0.7000000000000001 0  0.0241073360510646 0.6985417748196108 0  0.04786313285751161 0.6941883634852104 0  0.07092097740850711 0.6870032485370829 0  0.09294463440875372 0.677091205130642 0  0.1136129493462312 0.6645967731787312 0  0.1326245316481591 0.6497021496342202 0  0.1497021496342202 0.632624531648159 0  0.1645967731787313 0.6136129493462312 0  0.177091205130642 0.5929446344087537 0  0.187003248537083 0.5709209774085071 0  0.1941883634852104 0.5478631328575115 0  0.1985417748196108 0.5241073360510646 0  0.2 0.5 0  0.1985417748196108 0.4758926639489353 0  0.1941883634852104 0.4521368671424885 0  0.1870032485370829 0.4290790225914928 0  0.177091205130642 0.4070553655912463 0  0.1645967731787313 0.3863870506537688 0  0.1497021496342202 0.3673754683518409 0  0.132624531648159 0.3502978503657798 0  0.113612949346231 0.3354032268212686 0  0.09294463440875361 0.322908794869358 0  0.07092097740850711 0.3129967514629171 0  0.04786313285751148 0.3058116365147896 0  0.02410733605106464 0.3014582251803892 0  0.6985417748196108 0.5241073360510646 0  0.7 0.5 0  0.6985417748196108 0.4758926639489353 0  0.6941883634852104 0.4521368671424885 0  0.6870032485370829 0.4290790225914928 0  0.677091205130642 0.4070553655912463 0  0.6645967731787312 0.3863870506537688 0  0.6497021496342201 0.3673754683518409 0  0.632624531648159 0.3502978503657798 0  0.613612949346231 0.3354032268212686 0  0.5929446344087537 0.322908794869358 0  0.5709209774085071 0.3129967514629171 0  0.5478631328575114 0.3058116365147896 0  0.5241073360510646 0.3014582251803892 0  0.4999999999999999 0.3 0  0.4758926639489353 0.3014582251803892 0  0.4521368671424885 0.3058116365147896 0  0.4290790225914928 0.3129967514629171 0  0.4070553655912462 0.3229087948693581 0  0.3863870506537688 0.3354032268212687 0  0.367375468351841 0.3502978503657798 0  0.3502978503657798 0.367375468351841 0  0.3354032268212687 0.3863870506537689 0  0.322908794869358 0.4070553655912464 0  0.3129967514629171 0.4290790225914929 0  0.3058116365147896 0.4521368671424885 0  0.3014582251803892 0.4758926639489354 0  0.3 0.4999999999999999 0  0.3014582251803892 0.5241073360510646 0  0.3058116365147896 0.5478631328575115 0  0.3129967514629171 0.5709209774085071 0  0.3229087948693581 0.5929446344087538 0  0.3354032268212687 0.6136129493462312 0  0.3502978503657798 0.632624531648159 0  0.367375468351841 0.6497021496342202 0  0.3863870506537689 0.6645967731787313 0  0.4070553655912463 0.677091205130642 0  0.4290790225914929 0.6870032485370829 0  0.4521368671424885 0.6941883634852104 0  0.4758926639489354 0.6985417748196108 0  0.4999999999999999 0.7 0  0.5241073360510646 0.6985417748196108 0  0.5478631328575116 0.6941883634852104 0  0.5709209774085071 0.6870032485370829 0  0.5929446344087537 0.677091205130642 0  0.6136129493462312 0.6645967731787312 0  0.6326245316481591 0.6497021496342202 0  0.6497021496342202 0.632624531648159 0  0.6645967731787312 0.6136129493462312 0  0.677091205130642 0.5929446344087537 0  0.6870032485370829 0.5709209774085071 0  0.6941883634852104 0.5478631328575115 0  0 0.15 0  1 0.15 0  1 0.85 0  0 0.8500000000000001 0  0 0.075 0  1 0.075 0  1 0.925 0  0 0.925 0  0.5 0.8127595604293815 0  0.5069440078039168 0.190422209288238 0  0.25 0.3127595604293815 0  0.756944007803917 0.3095777907117619 0  0.756944007803917 0.6904222092882382 0  0.25 0.6872404395706185 0  0 0.225 0  0.4255768646051012 0.2241073097134061 0  1 0.7749999999999999 0  0.6773391559270888 0.2766774022734219 0  1 0.225 0  0.6755768646051011 0.7241073097134062 0  0 0.7750000000000001 0  0.5818971135297744 0.2287925518358889 0  0.8318971135297746 0.728792551835889 0  0.1659156081861886 0.7301636995921477 0  0.08376842746533225 0.2299656297760495 0  0.4236002201977974 0.7746535834185855 0  0.0840843918138115 0.7698363004078523 0  0.3340843918138113 0.7301636995921477 0  0.3340843918138114 0.2698363004078523 0  0.9159156081861887 0.2301636995921477 0  0.5840843918138116 0.7698363004078522 0  0.1659156081861887 0.2698363004078523 0  0.9162315725346678 0.7700343702239506 0  0.8340843918138114 0.2698363004078523 0  0.75 0.6146645247768686 0  0.5 0.1125158665330878 0  0.75 0.3874841334669124 0  0.2504983345544904 0.6122915843562002 0  0.2504983345544902 0.3877084156437999 0  0.5 0.8879783056303169 0  0.7005361650220154 0.3333055947145943 0  0.70416808765371 0.6599554817221275 0  0.449930214263529 0.1678187287522426 0  0.2247310981387008 0.7415600637745463 0  0.5155081196221678 0.7563797802146907 0  0.2752689018612993 0.2584399362254537 0  0.05605196690611226 0.8246131191226815 0  0.9439480330938878 0.1
[...]
<PointData  Scalars="Temperature"> 
<DataArray  type="Float64"  Name="Temperature"  format="ascii">-2.2568693389416083e+112  5.8481436038618548e+112  1.1786271015288526e+112  -1.5899252793696137e+112  1.6059170485323717e+112  -7.9748287394064585e+112  1.1950605809358816e+113  -1.6844241865961029e+113  -1.8547091796289915e+113  -5.0630348435656314e+113  2.7969073939781241e+112  3.7704610608772356e+115  6.4917443456636574e+115  5.1430743974789362e+114  7.6350151689760438e+114  5.2103554862210326e+114  -1.5979137664263082e+115  6.9811283612686967e+115  -2.2991843850028184e+116  5.6166080775189213e+116  -1.1385031564369072e+118  -6.7472781476171667e+117  1.0913018072375983e+117  -3.1477400181935849e+116  -8.0254112394380186e+115  -5.0130168452617819e+115  -5.1697234851188618e+114  3.0782343678512282e+114  -3.4132928920939768e+114  -1.4657250562169862e+113  5.4928453783565086e+112  1.0778094372571027e+113  -2.5744322759837692e+112  -9.2697463870116505e+112  7.1412743275330164e+114  -8.2623578055362090e+114  -9.4345122322283074e+115  -2.4091301329788119e+116  -1.0287422054445967e+116  -4.0978111064380739e+115  -4.7087630115517005e+115  -2.3347095597367084e+114  1.9736204966556993e+114  3.6187364481126293e+113  -1.3592469568805542e+113  -9.0144314092668631e+112  -2.4820310558793035e+114  5.9212528327695007e+114  1.4001895484588562e+116  3.3158995366146066e+116  1.7641768440928952e+117  -2.7797224644766841e+117  6.1100179926707587e+116  2.8609481473045376e+116  6.4265021887597422e+115  -2.4666909279866219e+115  1.4324968121655747e+115  -1.5805108692190501e+115  -1.8621220459784755e+115  -2.5731836607122170e+115  -4.9819232965315833e+115  -2.6282813116190119e+115  -1.4832709179954291e+115  -8.4486345697158805e+113  -2.8821791604817283e+113  -3.8340462641648145e+112  6.7949245121510517e+111  -3.0715787998054710e+111  -8.2483678281699796e+111  -7.9892171982174661e+111  -2.7223739652322851e+112  -1.3424653109726024e+113  -4.3416267910718902e+113  -1.2032008187075739e+114  6.8360350518835447e+113  -1.1266678027897856e+115  -2.2950099280258735e+116  -2.1840927073634549e+117  1.9433076312625872e+115  4.0791385153088574e+116  -5.4622697348157955e+115  -6.5610757696012190e+117  1.2652643739802383e+118  4.5745490089166439e+118  3.1287087098064858e+115  -1.6571026621185743e+116  2.4011767931782116e+116  2.2855781037393034e+116  3.9062341200884621e+117  -4.5438082019604701e+117  2.1889741826376599e+118  -1.3480361612438813e+118  1.0543732664742432e+116  1.7111415343509109e+117  5.5840878627059777e+116  -9.1924999064514311e+115  -8.8035615490290543e+114  -1.2679133463640125e+113  -1.0182945910481124e+113  8.9347624831564601e+111  -2.0589344726939343e+112  4.0775541352804637e+112  -9.6560908918366633e+112  1.7919057668243911e+114  -4.6304544696239910e+114  -5.9735490678835114e+114  -2.4442153975708048e+116  2.0570117327453390e+116  -6.9459456333036725e+115  -1.4856146645806423e+114  1.3450312693086738e+114  -6.7526903727338462e+111  1.2622100581140003e+113  -1.0680131194885841e+113  -6.1393017447569716e+112  -7.3352974639700766e+113  6.9298006288150309e+113  -1.5748331154712487e+113  1.5721648673313642e+113  7.1352515465199521e+112  2.7935825096497128e+113  4.7872335582400306e+112  -1.4639897833068094e+113  1.2997846829481545e+114  -3.9618179987110153e+114  -2.5318708570979649e+115  6.5067727654133945e+115  -1.0454821263135156e+117  -5.9473105516300372e+115  1.0722833775960443e+115  -2.1816523888454534e+114  -2.8964175824828197e+113  7.3878012277689840e+112  -3.0566384676392481e+112  1.3408889389084109e+112  -1.3151543901763911e+112  1.1965852705863300e+112  -1.8378688866427932e+111  1.7934115660399356e+111  -4.2568767966577703e+111  9.5858888819879017e+112  -1.5056836643471550e+114  -8.8556509413066745e+114  3.8230783456491615e+114  -8.0370147078342773e+116  2.9390549427723188e+117  -2.0081481254579253e+118  -9.3858229942434906e+117  2.0596755275415126e+117  1.0915085976135205e+116  1.7790399537396605e+114  4.4089102934413374e+114  1.4453473998692999e+115  -6.4072154068888249e+115  -1.6151715312678982e+116  7.2394162065160307e+114  -4.3358533002557114e+114  3.9168340041568754e+114  -5.5993271551020341e+114  -2.7872967020248008e+114  -3.1978325510215501e+113  3.4699458450922949e+114  4.0974886977295819e+115  -2.4108084327787616e+114  1.8517278401059392e+114  2.1669760102398697e+113  -6.4038255070039277e+114  2.4260345547220470e+114  -5.1425527448241677e+113  8.9886149401308316e+112  1.5103730073241076e+112  -9.3669822591559285e+111  1.6763326709981331e+112  2.0063934224240636e+112  -5.9828576743966508e+113  -6.3629522384207132e+112  -3.6016686754002806e+112  2.3492055295115178e+112  3.8570890439268800e+112  5.5282634449849046e+113  1.6121099613743074e+114  8.1218456029359002e+113  -1.3596731755060765e+114  -1.0858079888362208e+116  -1.1592487979638811e+115  7.5652116633387871e+113  -3.0998177413419910e+113  -5.8316142219890885e+112  -5.3350544601873426e+112  -3.7297889146992127e+113  6.0052377667886828e+113  -1.1639632768249067e+114  1.7286155167035034e+113  6.9055885883536839e+113  -7.7059593432119327e+114  -1.7208969228502316e+114  9.7707810666047883e+114  -4.5725051124993851e+114  4.1651597230917158e+113  -1.9160496177088035e+114  2.6962983236191496e+115  1.1718727989709232e+116  -1.1594263225767338e+117  -2.6781911990848823e+117  -2.1909604245388048e+117  -1.0238586527328490e+116  5.0384557457791527e+115  8.5912341103426897e+114  -8.3894645342448311e+113  1.0862099951987428e+114  6.9939195424944644e+114  -2.2515390671136856e+115  -2.6958518222770215e+115  1.7777369851746806e+115  -4.6846689709405711e+115  2.2214600423247124e+116  7.2524524751474615e+116  5.5836658001954676e+115  -1.6083059575171460e+113  -9.7696323795689577e+114  -3.5001862437527555e+120  1.2173043203990444e+112  -7.5385323810453260e+111  -7.0641116141066013e+115  -6.7593044041716133e+117  3.2962819630668946e+110  -1.4323863558093450e+114  -3.5636433315555661e+114  -3.1292694477656878e+112  -1.5495833069057139e+114  -7.4806232784169904e+113  -7.3144058147381555e+114  -8.4951834554731308e+111  2.8391078880197081e+115  -3.3636298017215581e+120  -9.8953998270822908e+113  -5.7077400986786785e+112  5.6634395643075452e+112  3.6302300769293799e+112  1.8607270048984933e+113  1.7295063779748642e+115  7.9656176195667826e+115  9.9047719311777624e+112  -1.3569836083115688e+115  1.4707561016410642e+114  3.0484393282853393e+114  3.0726714033925166e+114  5.0179646962986347e+112  9.4138958547782957e+112  6.9907806558299565e+113  2.3081225324935137e+118  -3.8018024618347838e+112  3.9662787446907015e+114  8.3756504853765508e+113  4.4502621373713216e+111  -4.0136585992693953e+115  -7.6581060034335405e+114  -2.2534790491969602e+113  -2.1956745714370859e+113  -2.8123813340612243e+114  3.9859144169415243e+115  -1.6773520710680792e+115  -1.0443373806252529e+114  -5.3406310966763824e+113  6.4609011394086356e+112  -8.9619179372992268e+114  -2.4552378210217932e+111  3.7080202273213613e+119  -5.3051911110180125e+113  1.7607518261430287e+112  1.6012339379540544e+115  -3.2799331043523166e+113  -1.2369379924835857e+117  -1.1258880677485413e+113  2.5581304485523252e+114  -2.8709330061077153e+113  7.1722749895390299e+113  -3.5541304149062635e+112  1.1541853428507142e+112  1.1526262259789232e+114  -9.8792163815811978e+113  -6.4051356723866663e+115  -3.6152409515203296e+113  -1.3782116531794212e+114  -1.1682173496113954e+113  2.7996275886867127e+113  -1.1514842950558646e+114  1.8972960512267839e+112  -1.8541409762123551e+113  1.5235575335776378e+114  -8.9991819843941741e+114  -2.5703163980146388e+116  1.1092029442810068e+113  -9.2127497929623480e+113  1.3958716794702724e+113  -6.6219628232177265e+112  2.5070391666397919e+114  -8.7260479141763371e+113  1.0987203284735233e+114  1.1604413634157200e+115  4.0314806437401226e+114  3.5359413500592254e+115  4.8269125697751742e+113  4.2373589306279418e+116  5.4898575910399174e+116  -1.5467970844781392e+115  -1.2145159292400355e+114  6.3243608031738399e+113  -5.3742967666046014e+114  2.2471199151084666e+114  7.8755519081279283e+114  9.8108374313203758e+115  -3.9679838519905465e+114  2.0070488516577042e+113  3.4016187409073577e+118  1.3604036389560917e+113  -2.5508218404229112e+116  1.7139307954862838e+119  -1.5652220541259354e+113  -9.8170775459173155e+111  1.0350023514125346e+111  -1.6882724076561547e+115  -9.3661212557207099e+113  -1.0026040251215619e+113  1.1656832981291357e+114  -1.0609653811523906e+115  -1.3677701019730578e+114  2.2832326685924101e+114  -1.8818327472495534e+113  5.7755901435251541e+116  2.4061333384210157e+113  -2.9019292771952736e+113  3.7869223615019915e+117  -3.3006291667178349e+116  8.8658998272380878e+113  7.5067333472537664e+114  -6.4667612398278356e+115  -3.9553030125931146e+113  -8.3818764850243050e+114  -1.7931347221007829e+114  8.8875265730261415e+112  1.0013692565479181e+114  1.5400156458349851e+114  2.8697533633360766e+114  -9.6908791096046911e+116  4.2113729645827446e+112  5.9832346330337176e+113  1.4213921698274001e+116  2.6207017226632575e+112  4.7561061470386675e+114  5.0527887349595118e+114  -1.4392215066174540e+115  2.0874686210798705e+115  -1.8275550668283664e+115  -2.9322840528296236e+113  1.8708738301643481e+114  -4.6566631462157360e+113  -5.6092119162614387e+113  1.7202362932311629e+115  -1.1517479588522708e+112  1.6312629855556371e+113  2.6713990963681183e+113  1.3313040540642438e+113  -6.0034899193233732e+113  -5.5559874411035400e+112  2.1158392515285952e+114  2.7517942849667243e+114  -5.5669487913437718e+118  2.0164789251021781e+115  1.6869749527885460e+113  -3.2590920897103854e+112  -6.8725393842307621e+114  -1.5819593995271127e+112  -5.4480692520661113e+113  -8.8641140445615295e+115  8.5333752928187509e+113  -3.0615378446387445e+115  1.0580149921185088e+113  -1.2028899068478097e+114  -1.3154006339621322e+113  -2.4255407407502140e+115  -3.1051390921205157e+114  1.1441486371197386e+114  2.6942165811514542e+111  7.0125686695766351e+111  6.9677627545719836e+115  -3.0500896292462942e+114  9.7478763718246925e+113  4.2206411662354857e+121  2.2100096090120560e+113  3.0752582011357890e+119  2.6805830476355789e+114  -1.8856270752724923e+112  -3.9461659024727580e+115  1.4033687582094122e+112  4.0118485568611662e+115  -1.0416706179989153e+116  6.5416006026772271e+112  -4.0537490887852533e+116  -2.0695304652620239e+111  -5.6006712245598440e+118  2.4355396624747976e+111  -1.3352447200878983e+111  -4.9746377203450919e+114  -5.1618754432929967e+115  4.6650451635592049e+114  2.1752324473117242e+113  5.9693239116294086e+113  6.3180428983602749e+117  -5.1883099443854253e+114  1.9066270049158975e+113  1.8289965161339394e+113  -9.9705085206029817e+113  -1.6084287862383441e+116  5.8059032074717105e+119  -1.1418945629597643e+113  2.1051722886182566e+112  -4.0646520253718726e+115  -6.8525598139542969e+113  2.4297400704847617e+114  -1.5623634128148022e+113  -1.7577235435304494e+113  2.1556283359701512e+115  -1.0204848870596286e+113  -3.4919103866634615e+114  -1.4351133547505774e+114  -2.9200813883047254e+114  -8.1110692783367203e+118  -8.9302870971211085e+111  5.8606474504058205e+113  -8.5805813060903176e+115  -6.2446782836947076e+112  -1.6876133484585773e+112  -6.7534159585996036e+113  7.1658983667133008e+112  -1.2321637504520234e+115  -3.9192926045825015e+114  -9.8289736390422688e+112  -5.4986560255592146e+115  -8.4863070338887995e+113  -1.9294197052220195e+116  -1.5525047151868548e+112  1.1911714553467218e+116  -2.9163844535917872e+117  -1.1081815775833576e+112  1.1340725203037803e+114  -4.8360263066732123e+115  2.4906110462236857e+114  8.4273147698444239e+111  -8.7975161384987250e+112  -4.9272248335392124e+115  4.0952813532528812e+113  8.9439241675357061e+113  1.2987786671800615e+112  -3.5875646223972298e+112  -1.1471263940278857e+113  3.1576099285977430e+116  1.0542012673278888e+116  1.0689529374347221e+114  -2.0965729119975422e+114  -1.6640838643571362e+115  2.2991734226901709e+114  2.9862941820411042e+114  -1.5428470055456285e+112  3.9261344690373195e+114  -1.4987189646470081e+117  -2.4588051607012010e+114  -1.7948085255804312e+120  -1.2733714223494823e+115  -1.1557518675938399e+114  5.7672825889351590e+114  -2.1780057844185866e+114  -2.5318867714374719e+113  -2.9256891843420009e+113  -6.0005549908532002e+112  -3.1751833913049645e+112  1.4273870666639666e+112  3.8158168606954943e+114  -1.5378177374872078e+115  -4.6245994489856811e+114  5.2279567974106983e+115  -1.1937162324945866e+113  -6.8648233237838641e+114  1.9766028306355604e+111  -2.4453946852786872e+115  2.9040146369286634e+113  4.9826716658735926e+113  -4.6369955154390519e+115  3.1848775054064824e+115  -6.6761126441229638e+114  -5.3693540865353885e+112  2.5916986348290840e+114  -4.4022537741650086e+113  8.4315150123091673e+114  6.4892395983467556e+112  2.0796180929508506e+116  -7.0367224185322958e+112  -8.7066882845005596e+113  6.3652567467858585e+114  -1.3944606566675913e+117  -2.3683820387668091e+114  -3.9539618764029008e+114  -2.1234600328276715e+113  4.3958656976404592e+114  -4.1953693585778982e+114  -1.3452898727426534e+114  -6.9318701597893670e+111  1.3442882771181179e+112  -6.8771454385634098e+112  -6.7049990895017835e+114  -6.0423389287547131e+112  -3.8844723927182599e+114  -6.2177350365195741e+114  -7.7526244185835881e+112  -1.8015862250401491e+114  -2.7149206339078522e+114  -3.2566745476786392e+113  2.9782710895903426e+114  2.1098031880946631e+114  5.0366308259845962e+113  2.5590188949947249e+119  9.1691951308410994e+113  6.0077149922392424e+111  -1.6068681429794785e+114  8.6919971133752802e+115  -8.7205958972347631e+115  -6.8526793810151386e+113  -1.3690868438153222e+113  5.3381374741413958e+113  -1.8928238527192993e+115  -1.0890100872563702e+114  5.7536501875143059e+114  2.0869967239183417e+113  3.0438888771329323e+113  -9.2011167200526370e+115  2.9241427164759031e+114  -6.3563534994895488e+113  -2.5253191032224699e+114  -3.5557542225169290e+113  -2.1852280020221088e+115  1.4255419498436517e+114  1.1330541990985121e+113  2.0046732435066379e+112  -8.5526506428799919e+115  -4.4985258420383500e+114  1.3116475565674266e+111  1.5535346626861428e+111  -1.8807115400067219e+115  1.4607874504201294e+112  -5.3316963409380104e+114  -2.0500179688951760e+113  8.7788094018653103e+112  -1.0259789419733110e+114  3.4084123361664258e+113  1.6332283383625327e+114  -7.8315265014650299e+114  5.0556927174257826e+112  3.7498110776381759e+115  2.5771570824912575e+116  3.1402632067987914e+117  4.9174987759389168e+115  -5.0718973228274117e+113  1.5145346491691788e+116  -7.5538211766884673e+115  -1.9795724569419497e+113  -4.2419734535237101e+113  -1.7318030624644974e+114  1.7432697461360936e+113  -1.5033168212518677e+114  -7.9773962242533550e+113  -2.2268474206298954e+115  2.6865615687721809e+113  -4.2112175210154934e+113  6.6239389947861695e+114  1.1617741416222113e+113  1.9666207275778007e+113  8.7771720205868987e+114  1.0136230612800109e+111  5.4921210521669709e+111  9.2658485174736567e+115  -1.4301938989317877e+114  -1.3636151827593230e+114  3.8313949392757105e+118  -4.4752660688714648e+114  2.2378282995815108e+113  -1.8674454732084320e+113  1.1774268390373397e+115  3.2010867767661251e+115  -3.3667797542162121e+113  2.9951564308889924e+115  8.9792118205261014e+112  1.6247807133953131e+111  -9.4948886432680251e+116  -4.3359157708893413e+114  2.9883887150692135e+112  -2.5978763034110691e+111  -2.5377150619533289e+113  8.9313490997018019e+113  7.0142685269178885e+112  1.5228794181471583e+112  1.6436127876898567e+115  -1.5773419130495177e+114  5.7671641150117035e+111  7.4083138638588750e+119  -6.3649305330824952e+115  -5.3451596771625118e+112  -3.4134470819746426e+114  -7.7500461312085405e+113  2.7367870544382489e+114  -6.7763069935685048e+115  -1.1129939884889652e+111  -2.2249243867614833e+112  -4.3866087757210694e+116  3.1036213879304228e+114  9.1938609123329230e+110  7.0317228575147119e+116  -1.2997503620516204e+113  4.3870922157771849e+116  -2.3839927986519749e+114  -1.1513959014585763e+115  -7.6002813077124575e+112  5.2115070245219041e+113  -3.6681012102099100e+117  8.2716511155931136e+114  1.1188227397989082e+114  2.7708194006171553e+113  7.3303562449746104e+115  -1.0673954142652900e+115  1.4914713459789429e+113  -8.2897934388013734e+114  2.4828604091302341e+113  -2.8929006625344518e+111  -2.1433476718463190e+113  -1.6290330810907112e+114  -9.6732421063526441e+114  7.7087327549655607e+113  -1.7719972206378572e+113  -5.2067836647497551e+115  4.5698783414441453e+114  6.6987809325402982e+112  -5.0614568589723354e+113  1.9550655211773866e+115  1.3485964727136934e+113  1.1128411864058810e+119  -3.8204908112097832e+113  1.7602138276600056e+114  -2.0143151220915690e+114  1.6864131278057013e+114  2.5099843486777110e+115  -1.6255672340472628e+115  -2.1292880686402271e+113  2.1235045570415533e+120  6.4369578689619997e+112  2.4347426898701312e+114  -4.1842117626143955e+113  1.4091118716569025e+113  -4.8258638090866831e+114  -9.2162594730131910e+113  1.6205010253874897e+115  5.2061377701637295e+114  -9.3282014850557905e+112  -3.4517820166949912e+114  -1.0994126914101485e+114  7.9944975866672164e+113  -8.0883543473875516e+113  -3.5039305824471210e+118  -2.2937257537498763e+112  -4.7723700291508844e+115  5.2514207854815273e+114  8.8397402974399194e+114  1.3747173171055052e+114  -6.5086210226210360e+111  8.8750334447291639e+113  -4.9639091188023603e+114  -1.1271101979829982e+114  2.2019053234648386e+113  -5.6607309233650098e+114  -2.5150341266186683e+112  -9.8925577781793346e+116  -1.6790406600564383e+115  -3.1390170318695805e+116  -5.6466381107673662e+116  -6.5057642985204095e+114  -1.8377591888890337e+115  1.7680509947082994e+115  1.6413138226340392e+115  -8.4609648609031970e+117  -1.8781051638847879e+118  1.7343038938148108e+111  -1.9385400277046178e+112  -1.9257184477802854e+115  -7.2660568471478103e+113  5.7061673010868971e+112  -3.4429357762512043e+111  -1.8540313853567069e+115  -9.1330912511624882e+114  3.9807664927709515e+115  -1.2807173281296883e+121  -3.1520938166919146e+115  3.0071640080102765e+114  -3.0027677955515964e+112  9.2611562503030970e+114  3.8065900479410928e+112  2.4844633508175521e+113  -2.8789082237516409e+115  -1.2933683689941690e+116  -2.4627631670622716e+114  -1.9455474601557200e+114  3.8753444557886214e+115  -8.4167406461045347e+112  -4.3661660180342281e+116  -1.6502974348384716e+116  -2.5410888685838922e+114  3.4193081667074934e+119  -9.3757376731926194e+112  -3.6005762911086652e+113  -3.0502715526784018e+112  4.3180825257264803e+118  -1.5198427488998402e+118  -4.0352732714804600e+116  -5.7803467882572886e+115  -2.8276965635148946e+114  -9.1668154413706156e+115  1.8870890510840865e+114  -2.6351531701806054e+115  -4.9067900023427388e+115  -1.7815093102527070e+112  -8.5111223136774536e+111  -2.5930714387731494e+112  -1.2277552757825912e+115  7.4429394065770181e+112  -2.8675858616305740e+111  -4.4662409411354249e+115  1.4302617212109782e+118  -2.8675550927489488e+113  1.7516790243341214e+114  -4.1040623434607122e+112  -1.6846089290241792e+114  -5.9222930301450113e+115  5.7583355583113337e+114  -3.0711041338306043e+113  -3.2808855794466626e+115  -5.1933702342470135e+114  -2.1343000831042924e+114  -1.1784960051429603e+115  7.0560647134144936e+113  1.9618535964161084e+114  -2.6998753781678711e+114  -6.0063419680061273e+115  -8.2393803819663519e+113  1.7510354462790412e+115  -2.3580678446568283e+115  -7.1525735555155650e+113  1.9900307348556946e+120  -2.3221597354602277e+113  7.2663688439625879e+112  7.1014483015024659e+112  -1.4991567516839156e+115  2.1934713416474307e+113  -2.0579035439720440e+115  -1.6793403890474186e+114  -1.0926509632542761e+113  -5.8465971465367378e+113  3.8431189457086483e+113  8.5992157752236171e+111  2.2237661444142838e+113  2.2691306522026100e+114  -2.8170768040524753e+113  5.9433492868814781e+111  -1.4667558329197802e+114  4.4938999034383294e+112  7.8685818187017301e+112  -5.0349045591359097e+114  -1.4479167986259377e+116  -2.1387009974637426e+117  5.2617661637619492e+115  9.2803750297060824e+113  -2.0358084728501365e+113  9.8478060534068999e+