<?xml version="1.0"?>
<VTKFile type="UnstructuredGrid"  version="0.1"  >
<UnstructuredGrid>
<Piece  NumberOfPoints="2331" NumberOfCells="4248">
<Points>
<DataArray  type="Float64"  NumberOfComponents="3"  format="ascii">0 0.3 0  0 0 0  0.04999999999999999 0 0  0.0514582251803892 0.02410733605106462 0  0.0558116365147896 0.04786313285751154 0  0.06299675146291706 0.07092097740850717 0  0.07290879486935808 0.09294463440875382 0  0.08540322682126872 0.1136129493462312 0  0.1002978503657798 0.132624531648159 0  0.117375468351841 0.1497021496342203 0  0.1363870506537689 0.1645967731787313 0  0.1570553655912463 0.177091205130642 0  0.1790790225914929 0.187003248537083 0  0.2021368671424885 0.1941883634852104 0  0.2258926639489354 0.1985417748196108 0  0.25 0.2 0  0.2741073360510646 0.1985417748196108 0  0.2978631328575116 0.1941883634852104 0  0.3209209774085071 0.187003248537083 0  0.3429446344087537 0.177091205130642 0  0.3636129493462312 0.1645967731787313 0  0.3826245316481591 0.1497021496342202 0  0.3997021496342202 0.132624531648159 0  0.4145967731787313 0.1136129493462312 0  0.427091205130642 0.09294463440875371 0  0.4370032485370829 0.07092097740850713 0  0.4441883634852104 0.04786313285751155 0  0.4485417748196108 0.02410733605106461 0  0.45 0 0  0.55 0 0  0.5514582251803892 0.02410733605106462 0  0.5558116365147896 0.04786313285751154 0  0.5629967514629171 0.07092097740850717 0  0.5729087948693581 0.09294463440875382 0  0.5854032268212688 0.1136129493462312 0  0.6002978503657798 0.132624531648159 0  0.617375468351841 0.1497021496342203 0  0.6363870506537689 0.1645967731787313 0  0.6570553655912463 0.177091205130642 0  0.6790790225914929 0.187003248537083 0  0.7021368671424885 0.1941883634852104 0  0.7258926639489354 0.1985417748196108 0  0.75 0.2 0  0.7741073360510646 0.1985417748196108 0  0.7978631328575116 0.1941883634852104 0  0.8209209774085071 0.187003248537083 0  0.8429446344087537 0.177091205130642 0  0.8636129493462312 0.1645967731787313 0  0.8826245316481591 0.1497021496342202 0  0.8997021496342202 0.132624531648159 0  0.9145967731787312 0.1136129493462312 0  0.927091205130642 0.09294463440875371 0  0.9370032485370829 0.07092097740850713 0  0.9441883634852104 0.04786313285751155 0  0.9485417748196108 0.02410733605106461 0  0.95 0 0  1 0 0  1 0.3 0  0.9758926639489353 0.3014582251803892 0  0.9521368671424885 0.3058116365147896 0  0.9290790225914928 0.3129967514629171 0  0.9070553655912461 0.3229087948693581 0  0.8863870506537688 0.3354032268212687 0  0.867375468351841 0.3502978503657798 0  0.8502978503657798 0.367375468351841 0  0.8354032268212687 0.3863870506537689 0  0.822908794869358 0.4070553655912464 0  0.8129967514629171 0.4290790225914929 0  0.8058116365147896 0.4521368671424885 0  0.8014582251803892 0.4758926639489354 0  0.8 0.4999999999999999 0  0.8014582251803892 0.5241073360510646 0  0.8058116365147896 0.5478631328575115 0  0.8129967514629171 0.5709209774085071 0  0.8229087948693581 0.5929446344087538 0  0.8354032268212688 0.6136129493462312 0  0.8502978503657798 0.632624531648159 0  0.867375468351841 0.6497021496342202 0  0.8863870506537689 0.6645967731787313 0  0.9070553655912463 0.677091205130642 0  0.9290790225914929 0.6870032485370829 0  0.9521368671424885 0.6941883634852104 0  0.9758926639489354 0.6985417748196108 0  1 0.7 0  1 1 0  0.95 1 0  0.9485417748196108 0.9758926639489353 0  0.9441883634852104 0.9521368671424885 0  0.9370032485370829 0.9290790225914928 0  0.927091205130642 0.9070553655912463 0  0.9145967731787312 0.8863870506537688 0  0.8997021496342201 0.8673754683518409 0  0.882624531648159 0.8502978503657798 0  0.863612949346231 0.8354032268212686 0  0.8429446344087537 0.822908794869358 0  0.8209209774085071 0.8129967514629171 0  0.7978631328575114 0.8058116365147896 0  0.7741073360510646 0.8014582251803892 0  0.75 0.8 0  0.7258926639489353 0.8014582251803892 0  0.7021368671424885 0.8058116365147896 0  0.6790790225914928 0.8129967514629171 0  0.6570553655912461 0.8229087948693581 0  0.6363870506537688 0.8354032268212688 0  0.617375468351841 0.8502978503657798 0  0.6002978503657798 0.867375468351841 0  0.5854032268212687 0.8863870506537689 0  0.572908794869358 0.9070553655912463 0  0.5629967514629171 0.9290790225914929 0  0.5558116365147896 0.9521368671424885 0  0.5514582251803892 0.9758926639489355 0  0.55 0.9999999999999999 0  0.45 0.9999999999999999 0  0.4485417748196108 0.9758926639489353 0  0.4441883634852104 0.9521368671424885 0  0.4370032485370829 0.9290790225914928 0  0.427091205130642 0.9070553655912463 0  0.4145967731787313 0.8863870506537688 0  0.3997021496342201 0.8673754683518409 0  0.382624531648159 0.8502978503657798 0  0.363612949346231 0.8354032268212686 0  0.3429446344087536 0.822908794869358 0  0.3209209774085071 0.8129967514629171 0  0.2978631328575115 0.8058116365147896 0  0.2741073360510646 0.8014582251803892 0  0.25 0.8 0  0.2258926639489353 0.8014582251803892 0  0.2021368671424885 0.8058116365147896 0  0.1790790225914928 0.8129967514629171 0  0.1570553655912462 0.8229087948693581 0  0.1363870506537688 0.8354032268212688 0  0.117375468351841 0.8502978503657798 0  0.1002978503657797 0.867375468351841 0  0.08540322682126869 0.8863870506537689 0  0.07290879486935797 0.9070553655912463 0  0.06299675146291703 0.9290790225914929 0  0.05581163651478957 0.9521368671424885 0  0.0514582251803892 0.9758926639489355 0  0.04999999999999999 0.9999999999999999 0  0 1 0  -0 0.7000000000000001 0  0.0241073360510646 0.6985417748196108 0  0.04786313285751161 0.6941883634852104 0  0.07092097740850711 0.6870032485370829 0  0.09294463440875372 0.677091205130642 0  0.1136129493462312 0.6645967731787312 0  0.1326245316481591 0.6497021496342202 0  0.1497021496342202 0.632624531648159 0  0.1645967731787313 0.6136129493462312 0  0.177091205130642 0.5929446344087537 0  0.187003248537083 0.5709209774085071 0  0.1941883634852104 0.5478631328575115 0  0.1985417748196108 0.5241073360510646 0  0.2 0.5 0  0.1985417748196108 0.4758926639489353 0  0.1941883634852104 0.4521368671424885 0  0.1870032485370829 0.4290790225914928 0  0.177091205130642 0.4070553655912463 0  0.1645967731787313 0.3863870506537688 0  0.1497021496342202 0.3673754683518409 0  0.132624531648159 0.3502978503657798 0  0.113612949346231 0.3354032268212686 0  0.09294463440875361 0.322908794869358 0  0.07092097740850711 0.3129967514629171 0  0.04786313285751148 0.3058116365147896 0  0.02410733605106464 0.3014582251803892 0  0.6985417748196108 0.5241073360510646 0  0.7 0.5 0  0.6985417748196108 0.4758926639489353 0  0.6941883634852104 0.4521368671424885 0  0.6870032485370829 0.4290790225914928 0  0.677091205130642 0.4070553655912463 0  0.6645967731787312 0.3863870506537688 0  0.6497021496342201 0.3673754683518409 0  0.632624531648159 0.3502978503657798 0  0.613612949346231 0.3354032268212686 0  0.5929446344087537 0.322908794869358 0  0.5709209774085071 0.3129967514629171 0  0.5478631328575114 0.3058116365147896 0  0.5241073360510646 0.3014582251803892 0  0.4999999999999999 0.3 0  0.4758926639489353 0.3014582251803892 0  0.4521368671424885 0.3058116365147896 0  0.4290790225914928 0.3129967514629171 0  0.4070553655912462 0.3229087948693581 0  0.3863870506537688 0.3354032268212687 0  0.367375468351841 0.3502978503657798 0  0.3502978503657798 0.367375468351841 0  0.3354032268212687 0.3863870506537689 0  0.322908794869358 0.4070553655912464 0  0.3129967514629171 0.4290790225914929 0  0.3058116365147896 0.4521368671424885 0  0.3014582251803892 0.4758926639489354 0  0.3 0.4999999999999999 0  0.3014582251803892 0.5241073360510646 0  0.3058116365147896 0.5478631328575115 0  0.3129967514629171 0.5709209774085071 0  0.3229087948693581 0.5929446344087538 0  0.3354032268212687 0.6136129493462312 0  0.3502978503657798 0.632624531648159 0  0.367375468351841 0.6497021496342202 0  0.3863870506537689 0.6645967731787313 0  0.4070553655912463 0.677091205130642 0  0.4290790225914929 0.6870032485370829 0  0.4521368671424885 0.6941883634852104 0  0.4758926639489354 0.6985417748196108 0  0.4999999999999999 0.7 0  0.5241073360510646 0.6985417748196108 0  0.5478631328575116 0.6941883634852104 0  0.5709209774085071 0.6870032485370829 0  0.5929446344087537 0.677091205130642 0  0.6136129493462312 0.6645967731787312 0  0.6326245316481591 0.6497021496342202 0  0.6497021496342202 0.632624531648159 0  0.6645967731787312 0.6136129493462312 0  0.677091205130642 0.5929446344087537 0  0.6870032485370829 0.5709209774085071 0  0.6941883634852104 0.5478631328575115 0  0 0.15 0  1 0.15 0  1 0.85 0  0 0.8500000000000001 0  0 0.075 0  1 0.075 0  1 0.925 0  0 0.925 0  0.5 0.8127595604293815 0  0.5069440078039168 0.190422209288238 0  0.25 0.3127595604293815 0  0.756944007803917 0.3095777907117619 0  0.756944007803917 0.6904222092882382 0  0.25 0.6872404395706185 0  0 0.225 0  0.4255768646051012 0.2241073097134061 0  1 0.7749999999999999 0  0.6773391559270888 0.2766774022734219 0  1 0.225 0  0.6755768646051011 0.7241073097134062 0  0 0.7750000000000001 0  0.5818971135297744 0.2287925518358889 0  0.8318971135297746 0.728792551835889 0  0.1659156081861886 0.7301636995921477 0  0.08376842746533225 0.2299656297760495 0  0.4236002201977974 0.7746535834185855 0  0.0840843918138115 0.7698363004078523 0  0.3340843918138113 0.7301636995921477 0  0.3340843918138114 0.2698363004078523 0  0.9159156081861887 0.2301636995921477 0  0.5840843918138116 0.7698363004078522 0  0.1659156081861887 0.2698363004078523 0  0.9162315725346678 0.7700343702239506 0  0.8340843918138114 0.2698363004078523 0  0.75 0.6146645247768686 0  0.5 0.1125158665330878 0  0.75 0.3874841334669124 0  0.2504983345544904 0.6122915843562002 0  0.2504983345544902 0.3877084156437999 0  0.5 0.8879783056303169 0  0.7005361650220154 0.3333055947145943 0  0.70416808765371 0.6599554817221275 0  0.449930214263529 0.1678187287522426 0  0.2247310981387008 0.7415600637745463 0  0.5155081196221678 0.7563797802146907 0  0.2752689018612993 0.2584399362254537 0  0.05605196690611226 0.8246131191226815 0  0.9439480330938878 0.1
[...]
<PointData  Scalars="Temperature"> 
<DataArray  type="Float64"  Name="Temperature"  format="ascii">2.0134953789417210e+05  2.0245298033646556e+01  -1.5992406089550293e+00  8.3748383691460475e+01  -1.9706031705595493e+02  1.8325755196192838e+03  -5.2153398537771982e+03  4.5676017426434308e+04  6.2245976569411741e+05  -5.1277922175009421e+05  -7.6023919468422741e+07  -9.2291972123165607e+08  -7.1780497942845240e+09  -4.7118833980300125e+10  2.4031240767208734e+11  1.0069249990781713e+12  -9.3636298106632629e+11  1.7360312169539658e+13  -2.5101902876299957e+13  -5.8104896119649672e+13  1.2554620755400370e+15  3.4335743082602740e+15  2.0476492532053622e+15  6.3183182109320870e+15  -3.4429143216877520e+15  -8.3735399536063212e+14  -4.1129895684358150e+14  1.0520836908263031e+14  -8.4539562295019281e+13  -2.0615116793252365e+15  3.7759485789624390e+15  -6.8892283224791750e+15  1.3034505617335392e+17  -7.6594730320300211e+17  -8.4489097730869053e+18  5.6914425798441134e+18  2.2506440793564083e+20  3.3176032763221665e+20  1.3690290941459518e+21  -3.4998689678125192e+21  5.1443750779452159e+22  -4.2134462014531966e+22  1.0763422615165714e+21  1.6230448201677084e+21  1.0940245217809464e+22  -3.4632781939816084e+20  -3.5285796829322879e+21  7.3165317852131754e+19  -2.0217562109275108e+20  9.1701760343011011e+18  -1.3336383090124372e+19  4.2349096800129198e+18  -2.3770667893358992e+17  -8.9990870164994992e+16  -8.0375767503138230e+15  2.1248979848309255e+15  -8.1409617941092656e+13  1.9369065381597377e+22  5.6578163405574111e+22  4.0529273897292993e+23  2.7088633935212976e+24  1.4674859896157882e+25  1.2886181764959499e+26  2.8479779250058581e+26  -1.4283113857117581e+26  2.6121890349959778e+28  -1.3848242303531891e+29  3.8429437728103648e+29  -7.9405002690065670e+30  3.1812358449594589e+31  2.7589386960186254e+32  -1.8799587566134683e+33  6.0694981440135715e+33  -4.1264952379464310e+34  3.5199210972056163e+35  -3.1653853187475524e+35  1.0767405271058384e+37  2.3174945382605920e+38  4.2801686968807055e+38  6.8344028003924216e+39  -1.0157240353979579e+39  -1.2350661782293491e+41  2.3819093895518291e+41  8.6119287949014355e+41  5.8905372439035916e+38  -3.1196100831627021e+39  4.5203901838714477e+39  4.3031097834717525e+39  7.3536347351213223e+40  -8.5537593099269739e+40  4.1208571562846893e+41  -2.5377776172377942e+41  1.9848002446872111e+39  3.2213687777537290e+40  1.0512346754482925e+40  -1.7302444178197916e+39  -1.6304634384860112e+38  -2.2928456039523033e+36  -1.4616390613320723e+36  -7.2754167871383271e+34  -3.5419696717084882e+33  2.6171570322970123e+33  -9.9565681363095478e+31  -4.4964478150060985e+31  1.3685221030569811e+31  -8.0450614190890747e+29  3.7514090387028829e+29  -3.0228077864717364e+28  1.2816056279132254e+28  3.7931373985366760e+26  -1.1850774815429185e+26  -7.0685846368863027e+25  -1.5595129923317077e+24  4.3594905813014153e+23  -7.1579009997203426e+24  9.2090503906643622e+24  1.1823318521717823e+25  4.7151505606697800e+24  -5.9280426158873812e+24  -4.1845593862157695e+24  3.4838628678064587e+23  1.1216516442424386e+23  -2.0106924524094779e+22  5.0565044276765686e+21  -8.2516642274379380e+20  -1.1953344316079933e+20  2.6480041381307036e+19  -4.2654455428675267e+18  -5.4281735724326784e+16  1.8703075027125208e+16  1.9329756910666228e+15  -3.2375792299670771e+12  2.0327636203561488e+13  -1.5759372441461887e+12  -1.0040175014741530e+11  -3.9859340656817749e+10  -1.0898347949966095e+10  -5.0709748075656861e+08  7.8072218878816485e+08  8.0345138651848412e+08  -5.0049012912498175e+11  7.2597048482848987e+11  8.5922663317612715e+12  -2.8046907347317000e+13  -3.9513815452475369e+14  -1.0954952135095705e+15  9.1625065948049840e+15  1.6330470816886916e+16  -7.9476781904118300e+15  3.7664046275889944e+16  6.3219916164110300e+15  -1.0006705214934504e+15  7.4490901430922888e+14  -2.6750780990930966e+14  -1.0878174572211325e+14  1.8486448262167285e+13  -4.5679869147815391e+12  1.3200818364250779e+12  -4.0931397583874677e+11  -4.6798696747744759e+10  2.2984279785809131e+09  -8.2528600068987215e+08  -2.9597894767908913e+08  4.7792595490462622e+06  -6.6501713788426956e+06  -8.9333031708553561e+05  -7.7928488356042120e+29  1.4394034123964525e+31  3.5935774002919074e+29  1.3160339420083480e+30  2.3477518665928956e+28  -1.1317828650208220e+28  1.7841872244274797e+27  -1.1665240064382263e+25  -4.1505547100218004e+25  -1.3085854463202733e+24  -5.5415070549366942e+23  -7.3273800994927065e+21  1.6063822718923853e+22  3.9238533829424458e+21  7.6538460136741814e+19  5.0941389413047943e+19  3.9339547087254856e+18  -3.0777032612176148e+18  -2.2856390167191379e+17  4.0685312690990725e+15  -2.5028662205802490e+15  -1.6986485444352266e+14  1.1536260803481883e+13  -4.0666579579245981e+12  -6.3061840966834004e+12  -9.7657425222980281e+13  6.5667999676561600e+14  -2.9577715204245045e+15  2.2481632596438480e+16  -2.9203205443702076e+16  -1.4714683462831168e+17  -1.6033912342873815e+19  4.2549171095479455e+18  1.8621422873583107e+21  -8.1672965970237147e+21  -2.9687922301527921e+22  7.9145964322250254e+23  3.1166008239311035e+24  1.4015372866047513e+25  1.5802326917341346e+25  1.0337181081293644e+27  1.6182666218067400e+27  1.5342145062233041e+29  -2.2541115048760711e+29  7.1613098609037969e+30  -6.9158844544888315e+30  -2.4764499413608122e+31  -3.9254183870208280e+31  -1.9816667504440863e+30  -1.3806389752295461e+32  2.2006416961749073e+32  1.7560322404459975e+31  -2.7860635011921790e+03  -1.9840992057910714e+19  -6.5893691805587582e+43  5.3302454028389030e+10  2.2713970269241106e+01  5.9510732055930224e+16  -1.2724889785164431e+41  -1.0793173633749956e+10  -4.7109459610436019e+27  3.8484786891122657e+18  -7.1924693152944183e+10  -1.3272192040066540e+26  2.3943967933759356e+35  2.6060396611726848e+19  1.9117086401054359e+04  -1.9707446325593462e+17  -6.3322921848411776e+43  6.8018177689031927e+22  1.5110518131466366e+21  8.0163919022359005e+32  1.4035945779745603e+12  -1.5765559347406189e+21  2.3537381018006684e+38  9.7068781659468220e+15  3.6815230353950066e+06  -1.8814042947977446e+25  7.2890455639992344e+13  1.1100382787682538e+22  -1.1967570494158170e+15  3.8043293489149057e+22  7.0082371503783603e+30  5.7114591842307234e+09  4.3452322204511986e+41  2.1223442255943169e+23  -1.3442936074017314e+34  -7.7600125351775520e+16  -4.2637593104176063e+27  4.0576832601549512e+18  -7.0969308976160864e+11  -8.7150188740076420e+26  -3.2002634005759579e+25  1.5117988058657027e+33  1.0290193840117531e+17  2.0369093786498264e+16  9.5680601801278214e+27  -2.9962534521765793e+13  6.6597627704934033e+12  -4.2632276450929918e+19  4.6915262379227424e+04  6.9806344663291343e+42  -1.5401621370590331e+19  1.0116100324900648e+35  -5.9426549477691152e+23  -9.2726503170957303e+25  2.8363392415768064e+17  6.2078323686078320e+09  2.9561835066764106e+20  2.2913481199543125e+13  -1.7902693033534966e+28  1.2827056454207770e+15  -2.0585978313070950e+29  3.7573617780856117e+32  -1.1140798240830141e+13  2.8000482378103400e+16  1.3268053517160686e+24  1.6786717884157009e+26  -5.0090411214278552e+11  -8.7694903703073407e+19  -6.5288587062620144e+19  1.3722299752893791e+36  -2.6962787320548350e+26  -2.1620510105864996e+22  -1.1579009268263594e+17  -5.2339203440474030e+15  5.1169314038651528e+32  -1.3092412951183471e+31  -4.9211370004557757e+23  5.0712430538309098e+36  4.7628251254193645e+23  -3.8849616090083003e+31  -2.7659864253153428e+14  -2.9075061045524420e+15  3.9785452429795638e+23  5.6656724501274172e+23  -3.3810410586408845e+20  7.9812815828439478e+39  1.0484142830812849e+40  -2.1904399577243720e+27  -1.3457560781268790e+07  -7.4625886100944666e+11  -2.4982469859977120e+22  7.9679044359684200e+15  -7.1229606594736910e+08  1.1343257245748978e+15  4.5309836703444459e+21  -3.4380208901569873e+22  6.4038018988607185e+41  -3.4423442969148164e+05  -5.3743487048350341e+18  3.2266044513850712e+42  2.5609681139412364e+03  2.3836218055982806e+11  -1.6238943207040708e+28  2.4838232610059218e+37  -3.5638410055021256e+18  1.1344957980133986e+34  -2.1416693495523922e+31  2.3034140606226296e+22  -4.9685729487074947e+08  2.2454599134457152e+21  -1.9091783211765358e+15  -2.7641750635997268e+16  3.6876626738570638e+14  -7.0569810393519886e+06  7.1292447129462226e+40  8.5897066602087168e+17  -5.8976765695563316e+09  -2.2114163627356037e+28  2.5917144312691741e+38  8.9310050016622595e+11  1.9483500875267334e+19  -2.0318113372159374e+23  1.3572900201988405e+25  -8.6393680390973048e+23  -3.5974328448237962e+18  1.8443321639830500e+32  1.3768966785837748e+15  1.3398327956206246e+34  -4.7917104412810863e+25  6.5482143557271811e+25  -1.6808469138825160e+22  9.5193394827016373e+23  9.1356884173210412e+37  8.0316794562717929e+20  8.3312576761088294e+17  -3.0240076821142894e+14  3.5431837350858143e+21  -2.1227879673690929e+10  -4.2009086707552588e+25  5.0654144723544327e+29  -3.4430304288760079e+18  1.9959639204162039e+05  -7.2219221813384138e+22  -1.0786636253021455e+21  5.0200297003764453e+12  -3.2034750556859538e+28  5.7980281821848511e+11  -2.2014253580853461e+19  8.9050278652937953e+24  -1.0480201756547330e+42  1.8450822052768244e+16  5.6538504635178874e+26  3.7145839437972263e+27  3.6670921888966528e+17  1.0495440945579519e+04  -5.9440625851504762e+33  -6.8324761524239195e+32  -7.9552864642976948e+34  -2.1935080945763668e+16  5.7330114381486304e+11  2.3973494940541149e+19  1.2962536438370840e+12  4.5536603379602961e+13  -2.3374934473186850e+15  -1.9402249875505880e+16  1.0894164339127802e+29  9.3296781333177612e+27  -2.8078622145314898e+28  -1.1665066972338333e+27  -1.8022008601558704e+26  7.9456811404775623e+44  -3.0258438884300391e+11  5.7894089137655402e+42  -2.3928489891577836e+20  3.6093575847670283e+04  1.1224253744333894e+16  -2.4653787522157980e+01  -8.1747413151554893e+17  -5.4413189868385312e+17  -3.9276562725140366e+02  -7.6314703995542943e+39  -1.4378962235522115e+08  -1.0543683193176094e+42  8.3235515311259354e+10  -5.6307093151183830e+10  -2.6790648540194438e+12  1.0142174919378874e+18  4.1004457892981437e+18  -5.5264574475495578e+13  -7.5158164544335888e+26  1.1890681953975922e+41  1.5217683713828418e+20  5.2520691955617241e+10  2.5802403221301075e+36  8.8256393789475472e+33  4.0131242349601625e+26  1.0930071373134536e+43  4.4923936319443000e+29  -6.3592958449789952e+19  5.1185258175803525e+18  2.1707249793209674e+11  2.5837138956030488e+08  -6.3707615312847374e+22  -5.3116480890044774e+18  4.2144682769492789e+24  -1.6868117988353318e+27  6.8156886261348315e+28  4.6083023027549010e+32  1.6132664336942016e+32  -1.5269702249366065e+42  -7.3511896939519420e+02  -1.2775798163774265e+08  1.6434704293355650e+37  2.2530725869609586e+20  1.9575031363263174e+11  5.5936539494949927e+22  -1.0100838721673286e+20  -5.5513249023353779e+33  -1.0082620726354120e+23  8.5173350692337486e+26  -3.8462465928636416e+16  2.5123948471710653e+31  7.3614980308818125e+24  -2.8712722465809478e+01  -7.2625733302015840e+16  -5.4903284177201644e+40  1.2614783228510305e+10  -3.0665591094996164e+23  -4.0394237179991178e+32  -3.5226854151624218e+18  -1.3063812798695054e+12  1.6039839437903167e+12  -2.6555261577161114e+19  2.9534306770269491e+18  3.5631038381480273e+22  1.1031941220611284e+05  -5.8186433673778689e+05  6.6748858304066871e+03  1.5787656351428982e+16  -3.2001625124191738e+17  -6.0575548131069522e+06  -3.7275854041783639e+26  -3.3467569636865906e+14  3.0206544045030315e+15  -7.0725949538803258e+21  -8.6233809961168801e+23  1.6580036809769539e+23  -4.4645840300876588e+14  1.6031062385654996e+31  -3.3788644224458661e+43  -4.5788560434193379e+32  4.3415143424464358e+34  -2.4920639269110573e+20  2.1001606107114485e+26  -3.4589707538507357e+26  3.9496029301732019e+14  8.8215446048855450e+14  4.4155795510423186e+30  3.8126502703691444e+29  -1.5578529606519459e+14  -1.0483398531524139e+14  -1.4268333257126904e+24  2.1194550034376310e+39  8.1370120347704349e+24  -2.5026468603996369e+21  -1.5251580601671753e+14  1.4453144771614766e+23  1.0762845313791845e+10  -1.4369708861014670e+20  6.1136955763859640e+18  -2.6080121938250426e+17  -1.2793415761211195e+13  -3.7141310463408989e+12  2.0690178242293199e+19  -9.9164145261083240e+29  1.6137178661310801e+29  -5.3017856601387129e+12  -1.6584881963378378e+17  -3.0109005445282457e+13  -3.2551124270228186e+09  -8.0108562229913138e+20  9.4185844946766640e+16  -5.5654283430362804e+28  -6.8881384435764072e+31  2.6295056318790443e+32  -7.0970143023669190e+15  -3.0966790417310065e+15  -4.7171930412249625e+08  1.5275871728561254e+34  9.7982867784348363e+34  1.6304639660606798e+35  -9.7097699123054886e+17  3.4541532798430064e+33  -5.9636309833838572e+27  3.2344549539866128e+16  9.9800777282957801e+24  4.6877773908913147e+25  2.9657705334457771e+26  -5.2291833828653703e+19  -1.6334202797042471e+19  -2.1395478169069732e+23  1.5755536061658515e+23  4.8175535228319095e+42  1.5116344953045884e+08  6.3294364198777048e+26  -2.4062810474562859e+19  1.6363995953047422e+39  -1.6411562701453101e+39  1.7922646198516447e+25  5.1525203322717585e+24  -2.7081615569475504e+22  7.9448472351206672e+16  -3.4701897445585300e+15  -3.7984083978451405e+15  -1.3612873899965565e+32  2.3755197951500633e+31  -1.3257155776215506e+24  -6.9719531667524538e+20  -5.7304410680752589e+17  7.0220561143330478e+20  1.4621344047159340e+23  -2.2568659815378585e+33  1.7786889406078420e+21  6.7066582324774000e+13  -3.4036272682843620e+21  -1.6101087309285548e+39  -1.1096450288608330e+15  2.4745156465444097e+01  2.8223774039035702e+08  3.1342264776967767e+18  4.5514642765759505e+22  5.0666352172992119e+14  -1.1397066753962075e+25  1.3778545944293426e+33  -5.5625683906301531e+24  4.6883835535890340e+15  -5.4702916824897275e+14  -6.8771675133948428e+12  8.3250034345945256e+22  8.8207713619720068e+38  4.8809082969193318e+39  5.9153019087230308e+40  9.2297739586568847e+38  -1.2200595785507833e+30  -2.3908163220336316e+14  1.3406398213975496e+17  8.7588627557405080e+24  5.9495344867655590e+24  4.1361122684115037e+25  5.6446685706932214e+30  7.0655174054241772e+33  1.0859787936052140e+16  7.7900685389527888e+16  5.1930576332805705e+08  -7.9482669267261938e+13  1.8717897389737239e+24  5.4941070692249522e+07  3.4742066301767496e+18  2.7701208767828127e+22  6.2391075807833624e+28  7.5273887751308794e+04  2.0833208042065264e+16  2.2460823667451518e+36  6.7705727384274225e+35  7.2128970774967517e+41  5.3747352389785584e+20  -5.7909377531391808e+10  3.7924644426008802e+20  7.5061362058819808e+16  1.2467742193993070e+16  1.7097555215125228e+15  -4.5754532400072400e+14  2.8249255632661007e+30  -7.4230482046456418e+03  -1.7871301292740730e+40  1.2551118932108639e+13  1.5030672180908005e+24  1.6806226892391731e+12  -1.4989773782976974e+20  2.2250959009700062e+35  4.6965030246311243e+25  -6.1668399933760375e+14  -7.6693868553932602e+29  5.8487657087681448e+08  2.2440035763222963e+26  1.3946725382149958e+43  1.5555438309829562e+14  1.8055860035987307e+23  -6.8427911702060215e+12  1.7580704115521908e+22  4.5654383882602050e+15  5.0447139569070890e+15  -1.2136655613761744e+09  2.7569607574454146e+01  -8.2581318001329770e+39  9.0801158720967219e+18  2.9305451534033862e+27  1.3252258618476331e+40  -2.9904234351954623e+23  -7.6605517665995962e+14  -2.7209366073540811e+22  2.3384647848550544e+23  5.9454833028191615e+30  5.4706516014308261e+05  1.1070823624569670e+16  -6.7779866182927680e+13  1.1757076745891876e+20  8.7920265312725662e+23  -5.2745539932921113e+22  1.2360579946722173e+23  5.1098458296423896e+12  3.0704117956587490e+22  4.0756137344727334e+12  -8.3889950048820210e+28  4.8727686731170447e+19  -1.2556361835642957e+12  -1.0640083805981978e+18  1.5063274537086518e+37  -8.3113348507926254e+10  7.6380757169700103e+24  5.1197311032061928e+37  1.1013938900126386e+36  9.7572817994207933e+35  -1.1582545242431704e+25  -2.8000558831897037e+25  2.0950124105777280e+42  -2.6026192097347840e+17  -2.3957713177139259e+10  9.6921528628231065e+20  -1.1671011388676517e+27  -7.4606648931308704e+32  1.3217078440001634e+19  3.3445258664940975e+14  3.9976624580944440e+43  -1.2371500273616490e+13  -5.1613137274421199e+19  -3.6428932516952650e+14  -1.6356817616508886e+24  2.2189665369097289e+13  -6.8118912936951192e+16  1.8277357872840641e+09  2.1118856335738159e+20  4.7985084432767719e+13  -3.8846292408381328e+13  -1.5662471511111012e+22  -5.2382998711999876e+20  3.4515298587270342e+21  -6.5964158964302179e+41  5.5730955056447849e+04  6.0875999048459236e+20  4.2096868851471582e+11  -3.6303897574810848e+27  -1.6265273715081485e+20  -2.1164109954006007e+21  5.5166478936810719e+22  -1.2317663797100720e+19  -7.5717384772235791e+11  -4.8767444762338848e+12  1.0169010295507924e+25  2.9873217930404547e+11  -8.6587018549296592e+16  -3.1418426994664762e+38  6.4398333392854195e+17  2.5315993371002226e+25  3.4955801360094495e+07  1.3604557955595090e+24  5.8591557794869633e+09  4.3693384260059458e+08  -1.5929073458787099e+41  -3.5356966834608470e+41  -7.3985551707932071e+04  1.3348194812826675e+06  1.7307459046311202e+16  -7.0285454467602750e+24  2.4840738137828294e+29  1.0875965147718101e+28  -3.0924147556707645e+26  3.3788962537010935e+27  1.1812259252103084e+24  -2.4110485666850325e+44  5.4686984876447342e+28  -1.2493414463117399e+24  1.4202516253801973e+13  -4.8311079527070281e+14  -2.2171236665871089e+27  -4.4872062142135439e+30  -3.5677019933622922e+27  -1.4215677715606618e+25  -3.8265513400921354e+34  -6.1310381586321680e+12  7.4080779266252210e+15  5.6652463051895273e+12  1.0038297798678546e+17  4.0015377757516856e+18  -1.7653012062077448e+11  6.4371105685797561e+42  -1.1940478025369937e+03  -5.3776371847584332e+03  -3.1644283200529535e+04  8.1290934870250895e+41  -2.8611848071402233e+41  7.8735440333678627e+37  8.4695470150282004e+18  7.2150797965890691e+36  -7.5121615928849504e+16  -1.2892147124157430e+35  -1.7956880673541231e+19  2.1646825633107597e+18  1.2484869078178972e+12  -3.7253192029537651e+10  1.5954980971111313e+11  1.1668708543516419e+27  8.1905547236641723e+03  -1.5731349980875308e+11  -3.1465309557132237e+17  2.6926829624160413e+41  -7.5961082012739092e+18  4.5193223116185394e+24  -8.5493263446561176e+21  8.7585296122393082e+10  1.5101671481043073e+19  -1.8626834882935377e+21  3.2400733019183636e+11  -5.3497638423666371e+31  4.8143864985789943e+36  1.5892441698666031e+36  1.1655503845338661e+38  -2.7804588690283136e+11  -1.9379839405787681e+27  -8.2562952335602790e+06  4.6698894773999840e+37  -4.3976800561912856e+14  -7.0509554176919758e+20  5.0155310538875584e+17  1.8047624986178128e+19  3.7463854279759069e+43  2.7603224179087340e+26  -4.8784798475112696e+05  9.7672046287657897e+35  1.1310693561227042e+15  -1.7927804121169478e+32  -1.6764430829025462e+15  5.2337126047083823e+20  9.1904115168865730e+31  -2.4694017881101867e+27  5.9763426241006255e+29  1.8237011246009820e+28  -4.0026732830147600e+09  -7.8315948605278312e+14  8.4768695594026963e+21  3.3694646833571492e+27  1.0672834809065785e+26  1.2404962404760806e+26  -1.3140445570246517e+26  5.4661793390153745e+27  -5.5697525976025888e+16  -3.1946964844088885e+15  -2.8849653187120309e+22  -1.0445277750609050e+22  -6.4025116477790198e+11  1.1295848108408435e+23  -9.1237310496348584e+11  -1.1519979325453763e+19  -4.1593677133110272e+16  -1.4618418456357318e+17  -1.1857011959124842e+17  -2.9413668942196851e+20  3.9415971686257002e+24  2.0628097010806892e+33  -5.5965037696969414e+32  3.1664809415450451e+34  8.4578901658677964e+25  3.0060591436153528e+41  -2.1331807508845691e+20  -3.5928033284342808e+24  -1.6323776112432927e+07  -5.7585466096634802e+05  5.3257360617550331e+08  4.2749349575304503e+22  -6.0036966913678739e+21  6.6647283243651411e+21  -1.6176126593390616e+28  6.6980805415408903e+30  -3.9815156590756593e+09  2.1943309158374175e+15  -8.5648117655615715e+40  -1.6491627041633450e+19  1.0348490633356412e+18  -4.3974815804121070e+23  -7.4249406197666748e+10  1.9218185368217396e+31  2.7582188610582920e+16  -3.4594792936281227e+32  -2.4608030728410740e+15  -4.2660864046932889e+24  -1.