<?xml version="1.0"?>
<VTKFile type="UnstructuredGrid"  version="0.1"  >
<UnstructuredGrid>
<Piece  NumberOfPoints="2331" NumberOfCells="4248">
<Points>
<DataArray  type="Float64"  NumberOfComponents="3"  format="ascii">0 0.3 0  0 0 0  0.04999999999999999 0 0  0.0514582251803892 0.02410733605106462 0  0.0558116365147896 0.04786313285751154 0  0.06299675146291706 0.07092097740850717 0  0.07290879486935808 0.09294463440875382 0  0.08540322682126872 0.1136129493462312 0  0.1002978503657798 0.132624531648159 0  0.117375468351841 0.1497021496342203 0  0.1363870506537689 0.1645967731787313 0  0.1570553655912463 0.177091205130642 0  0.1790790225914929 0.187003248537083 0  0.2021368671424885 0.1941883634852104 0  0.2258926639489354 0.1985417748196108 0  0.25 0.2 0  0.2741073360510646 0.1985417748196108 0  0.2978631328575116 0.1941883634852104 0  0.3209209774085071 0.187003248537083 0  0.3429446344087537 0.177091205130642 0  0.3636129493462312 0.1645967731787313 0  0.3826245316481591 0.1497021496342202 0  0.3997021496342202 0.132624531648159 0  0.4145967731787313 0.1136129493462312 0  0.427091205130642 0.09294463440875371 0  0.4370032485370829 0.07092097740850713 0  0.4441883634852104 0.04786313285751155 0  0.4485417748196108 0.02410733605106461 0  0.45 0 0  0.55 0 0  0.5514582251803892 0.02410733605106462 0  0.5558116365147896 0.04786313285751154 0  0.5629967514629171 0.07092097740850717 0  0.5729087948693581 0.09294463440875382 0  0.5854032268212688 0.1136129493462312 0  0.6002978503657798 0.132624531648159 0  0.617375468351841 0.1497021496342203 0  0.6363870506537689 0.1645967731787313 0  0.6570553655912463 0.177091205130642 0  0.6790790225914929 0.187003248537083 0  0.7021368671424885 0.1941883634852104 0  0.7258926639489354 0.1985417748196108 0  0.75 0.2 0  0.7741073360510646 0.1985417748196108 0  0.7978631328575116 0.1941883634852104 0  0.8209209774085071 0.187003248537083 0  0.8429446344087537 0.177091205130642 0  0.8636129493462312 0.1645967731787313 0  0.8826245316481591 0.1497021496342202 0  0.8997021496342202 0.132624531648159 0  0.9145967731787312 0.1136129493462312 0  0.927091205130642 0.09294463440875371 0  0.9370032485370829 0.07092097740850713 0  0.9441883634852104 0.04786313285751155 0  0.9485417748196108 0.02410733605106461 0  0.95 0 0  1 0 0  1 0.3 0  0.9758926639489353 0.3014582251803892 0  0.9521368671424885 0.3058116365147896 0  0.9290790225914928 0.3129967514629171 0  0.9070553655912461 0.3229087948693581 0  0.8863870506537688 0.3354032268212687 0  0.867375468351841 0.3502978503657798 0  0.8502978503657798 0.367375468351841 0  0.8354032268212687 0.3863870506537689 0  0.822908794869358 0.4070553655912464 0  0.8129967514629171 0.4290790225914929 0  0.8058116365147896 0.4521368671424885 0  0.8014582251803892 0.4758926639489354 0  0.8 0.4999999999999999 0  0.8014582251803892 0.5241073360510646 0  0.8058116365147896 0.5478631328575115 0  0.8129967514629171 0.5709209774085071 0  0.8229087948693581 0.5929446344087538 0  0.8354032268212688 0.6136129493462312 0  0.8502978503657798 0.632624531648159 0  0.867375468351841 0.6497021496342202 0  0.8863870506537689 0.6645967731787313 0  0.9070553655912463 0.677091205130642 0  0.9290790225914929 0.6870032485370829 0  0.9521368671424885 0.6941883634852104 0  0.9758926639489354 0.6985417748196108 0  1 0.7 0  1 1 0  0.95 1 0  0.9485417748196108 0.9758926639489353 0  0.9441883634852104 0.9521368671424885 0  0.9370032485370829 0.9290790225914928 0  0.927091205130642 0.9070553655912463 0  0.9145967731787312 0.8863870506537688 0  0.8997021496342201 0.8673754683518409 0  0.882624531648159 0.8502978503657798 0  0.863612949346231 0.8354032268212686 0  0.8429446344087537 0.822908794869358 0  0.8209209774085071 0.8129967514629171 0  0.7978631328575114 0.8058116365147896 0  0.7741073360510646 0.8014582251803892 0  0.75 0.8 0  0.7258926639489353 0.8014582251803892 0  0.7021368671424885 0.8058116365147896 0  0.6790790225914928 0.8129967514629171 0  0.6570553655912461 0.8229087948693581 0  0.6363870506537688 0.8354032268212688 0  0.617375468351841 0.8502978503657798 0  0.6002978503657798 0.867375468351841 0  0.5854032268212687 0.8863870506537689 0  0.572908794869358 0.9070553655912463 0  0.5629967514629171 0.9290790225914929 0  0.5558116365147896 0.9521368671424885 0  0.5514582251803892 0.9758926639489355 0  0.55 0.9999999999999999 0  0.45 0.9999999999999999 0  0.4485417748196108 0.9758926639489353 0  0.4441883634852104 0.9521368671424885 0  0.4370032485370829 0.9290790225914928 0  0.427091205130642 0.9070553655912463 0  0.4145967731787313 0.8863870506537688 0  0.3997021496342201 0.8673754683518409 0  0.382624531648159 0.8502978503657798 0  0.363612949346231 0.8354032268212686 0  0.3429446344087536 0.822908794869358 0  0.3209209774085071 0.8129967514629171 0  0.2978631328575115 0.8058116365147896 0  0.2741073360510646 0.8014582251803892 0  0.25 0.8 0  0.2258926639489353 0.8014582251803892 0  0.2021368671424885 0.8058116365147896 0  0.1790790225914928 0.8129967514629171 0  0.1570553655912462 0.8229087948693581 0  0.1363870506537688 0.8354032268212688 0  0.117375468351841 0.8502978503657798 0  0.1002978503657797 0.867375468351841 0  0.08540322682126869 0.8863870506537689 0  0.07290879486935797 0.9070553655912463 0  0.06299675146291703 0.9290790225914929 0  0.05581163651478957 0.9521368671424885 0  0.0514582251803892 0.9758926639489355 0  0.04999999999999999 0.9999999999999999 0  0 1 0  -0 0.7000000000000001 0  0.0241073360510646 0.6985417748196108 0  0.04786313285751161 0.6941883634852104 0  0.07092097740850711 0.6870032485370829 0  0.09294463440875372 0.677091205130642 0  0.1136129493462312 0.6645967731787312 0  0.1326245316481591 0.6497021496342202 0  0.1497021496342202 0.632624531648159 0  0.1645967731787313 0.6136129493462312 0  0.177091205130642 0.5929446344087537 0  0.187003248537083 0.5709209774085071 0  0.1941883634852104 0.5478631328575115 0  0.1985417748196108 0.5241073360510646 0  0.2 0.5 0  0.1985417748196108 0.4758926639489353 0  0.1941883634852104 0.4521368671424885 0  0.1870032485370829 0.4290790225914928 0  0.177091205130642 0.4070553655912463 0  0.1645967731787313 0.3863870506537688 0  0.1497021496342202 0.3673754683518409 0  0.132624531648159 0.3502978503657798 0  0.113612949346231 0.3354032268212686 0  0.09294463440875361 0.322908794869358 0  0.07092097740850711 0.3129967514629171 0  0.04786313285751148 0.3058116365147896 0  0.02410733605106464 0.3014582251803892 0  0.6985417748196108 0.5241073360510646 0  0.7 0.5 0  0.6985417748196108 0.4758926639489353 0  0.6941883634852104 0.4521368671424885 0  0.6870032485370829 0.4290790225914928 0  0.677091205130642 0.4070553655912463 0  0.6645967731787312 0.3863870506537688 0  0.6497021496342201 0.3673754683518409 0  0.632624531648159 0.3502978503657798 0  0.613612949346231 0.3354032268212686 0  0.5929446344087537 0.322908794869358 0  0.5709209774085071 0.3129967514629171 0  0.5478631328575114 0.3058116365147896 0  0.5241073360510646 0.3014582251803892 0  0.4999999999999999 0.3 0  0.4758926639489353 0.3014582251803892 0  0.4521368671424885 0.3058116365147896 0  0.4290790225914928 0.3129967514629171 0  0.4070553655912462 0.3229087948693581 0  0.3863870506537688 0.3354032268212687 0  0.367375468351841 0.3502978503657798 0  0.3502978503657798 0.367375468351841 0  0.3354032268212687 0.3863870506537689 0  0.322908794869358 0.4070553655912464 0  0.3129967514629171 0.4290790225914929 0  0.3058116365147896 0.4521368671424885 0  0.3014582251803892 0.4758926639489354 0  0.3 0.4999999999999999 0  0.3014582251803892 0.5241073360510646 0  0.3058116365147896 0.5478631328575115 0  0.3129967514629171 0.5709209774085071 0  0.3229087948693581 0.5929446344087538 0  0.3354032268212687 0.6136129493462312 0  0.3502978503657798 0.632624531648159 0  0.367375468351841 0.6497021496342202 0  0.3863870506537689 0.6645967731787313 0  0.4070553655912463 0.677091205130642 0  0.4290790225914929 0.6870032485370829 0  0.4521368671424885 0.6941883634852104 0  0.4758926639489354 0.6985417748196108 0  0.4999999999999999 0.7 0  0.5241073360510646 0.6985417748196108 0  0.5478631328575116 0.6941883634852104 0  0.5709209774085071 0.6870032485370829 0  0.5929446344087537 0.677091205130642 0  0.6136129493462312 0.6645967731787312 0  0.6326245316481591 0.6497021496342202 0  0.6497021496342202 0.632624531648159 0  0.6645967731787312 0.6136129493462312 0  0.677091205130642 0.5929446344087537 0  0.6870032485370829 0.5709209774085071 0  0.6941883634852104 0.5478631328575115 0  0 0.15 0  1 0.15 0  1 0.85 0  0 0.8500000000000001 0  0 0.075 0  1 0.075 0  1 0.925 0  0 0.925 0  0.5 0.8127595604293815 0  0.5069440078039168 0.190422209288238 0  0.25 0.3127595604293815 0  0.756944007803917 0.3095777907117619 0  0.756944007803917 0.6904222092882382 0  0.25 0.6872404395706185 0  0 0.225 0  0.4255768646051012 0.2241073097134061 0  1 0.7749999999999999 0  0.6773391559270888 0.2766774022734219 0  1 0.225 0  0.6755768646051011 0.7241073097134062 0  0 0.7750000000000001 0  0.5818971135297744 0.2287925518358889 0  0.8318971135297746 0.728792551835889 0  0.1659156081861886 0.7301636995921477 0  0.08376842746533225 0.2299656297760495 0  0.4236002201977974 0.7746535834185855 0  0.0840843918138115 0.7698363004078523 0  0.3340843918138113 0.7301636995921477 0  0.3340843918138114 0.2698363004078523 0  0.9159156081861887 0.2301636995921477 0  0.5840843918138116 0.7698363004078522 0  0.1659156081861887 0.2698363004078523 0  0.9162315725346678 0.7700343702239506 0  0.8340843918138114 0.2698363004078523 0  0.75 0.6146645247768686 0  0.5 0.1125158665330878 0  0.75 0.3874841334669124 0  0.2504983345544904 0.6122915843562002 0  0.2504983345544902 0.3877084156437999 0  0.5 0.8879783056303169 0  0.7005361650220154 0.3333055947145943 0  0.70416808765371 0.6599554817221275 0  0.449930214263529 0.1678187287522426 0  0.2247310981387008 0.7415600637745463 0  0.5155081196221678 0.7563797802146907 0  0.2752689018612993 0.2584399362254537 0  0.05605196690611226 0.8246131191226815 0  0.9439480330938878 0.1
[...]
<PointData  Scalars="Temperature"> 
<DataArray  type="Float64"  Name="Temperature"  format="ascii">-8.5286923136295738e+14  4.6782384315308044e+10  1.3929367264092743e+11  -2.2238388533588861e+11  9.6691341568257703e+11  -7.6319310752775752e+12  2.2225090320402887e+13  -1.9337156004138666e+14  -2.6368546573742015e+15  2.1724612396696822e+15  3.2206724040374701e+17  3.9098497288977684e+18  3.0409031921144127e+19  1.9961384537024866e+20  -1.0180575302695581e+21  -4.2657288807908261e+21  3.9668005215061614e+21  -7.3545085354762094e+22  1.0634149729452012e+23  2.4615510959276005e+23  -5.3186293312976401e+24  -1.4545966288346822e+25  -8.6746446511522103e+24  -2.6766871907843867e+25  1.4585534245307215e+25  3.5473596591827209e+24  1.7424235573659924e+24  -4.4570387955371354e+23  3.5814271449344801e+23  8.7333713204804296e+24  -1.5996397865624806e+25  2.9185470863533478e+25  -5.5219273641145095e+26  3.2448529289835797e+27  3.5792892682400394e+28  -2.4111181080109465e+28  -9.5346102825348682e+29  -1.4054667551360745e+30  -5.7997437257454148e+30  1.4826816445171699e+31  -2.1793588762119474e+32  1.7849809237172299e+32  -4.5598076072151097e+30  -6.8758538825966050e+30  -4.6347165908617462e+31  1.4671803588357245e+30  1.4948446285318702e+31  -3.0995695779554207e+29  8.5649515773282654e+29  -3.8848459208310067e+28  5.6498144912937819e+28  -1.7940736943268308e+28  1.0070186423414990e+27  3.8123659084060180e+26  3.4050324808407722e+25  -9.0019005498638838e+24  3.4488304367544665e+23  -8.2054951133489906e+31  -2.3968727153339405e+32  -1.7169788648025818e+33  -1.1475806860246066e+34  -6.2168457173680093e+34  -5.4590915678648956e+35  -1.2065150530579771e+36  6.0508867438352629e+35  -1.1066256393645175e+38  5.8666581123767450e+38  -1.6280215760245345e+39  3.3639070792122201e+40  -1.3476961673652382e+41  -1.1687945464688839e+42  7.9642419945289409e+42  -2.5712772598982683e+43  1.7481450882187535e+44  -1.4911765123130974e+45  1.3409812633255516e+45  -4.5614948163199019e+46  -9.8178150232161524e+47  -1.8132471874421195e+48  -2.8953208467436015e+49  4.3030050468453817e+48  5.2322243177268595e+50  -1.0090701575604745e+51  -3.6483505141250851e+51  -2.4954624096511237e+48  1.3215890797325966e+49  -1.9150144229173389e+49  -1.8229659307169780e+49  -3.1152878414939330e+50  3.6237076407958690e+50  -1.7457565758867089e+51  1.0751020468337034e+51  -8.4083916223588540e+48  -1.3646980503905596e+50  -4.4534420336922757e+49  7.3299933866756247e+48  6.9072820569351606e+47  9.7133924782811750e+45  6.1920758379159202e+45  3.0821516535929665e+44  1.5005171524924439e+43  -1.1087302777026944e+43  4.2179924316759440e+41  1.9048714972337245e+41  -5.7975959128173766e+40  3.4082032798365108e+39  -1.5892438756748706e+39  1.2805798334520142e+38  -5.4293836640533203e+37  -1.6069216441143098e+36  5.0204526094373676e+35  2.9945294495919005e+35  6.6067081635958484e+33  -1.8468510460781882e+33  3.0323673609385711e+34  -3.9013146215601798e+34  -5.0088210474884164e+34  -1.9975225506255054e+34  2.5113511549506114e+34  1.7727433367918341e+34  -1.4759008333217904e+33  -4.7517559078796160e+32  8.5180811606786024e+31  -2.1421334253612730e+31  3.4957283256201527e+30  5.0639050693153703e+29  -1.1217983205427878e+29  1.8070098824442757e+28  2.2995870397197972e+26  -7.9233555009570148e+25  -8.1888425046770555e+24  1.3715654331986726e+22  -8.6115832771440236e+22  6.6762877305675443e+21  4.2534115826429270e+20  1.6885978684054615e+20  4.6169672757505237e+19  2.1482637387058458e+18  -3.3074450409793792e+18  -3.4037348294773565e+18  2.1202723146933739e+21  -3.0754954604888898e+21  -3.6400207242137669e+22  1.1881769029589412e+23  1.6739600657919801e+24  4.6409470173458861e+24  -3.8815968457172689e+25  -6.9182273819968235e+25  3.3669479280014977e+25  -1.5955965947608221e+26  -2.6782433892954012e+25  4.2392324629088272e+24  -3.1557264929319722e+24  1.1332679113568670e+24  4.6084210330182080e+23  -7.8315839143328975e+22  1.9351782633203500e+22  -5.5923839609106554e+21  1.7340144000878295e+21  1.9825761859752061e+20  -9.7370414856957174e+18  3.4962350256501012e+18  1.2538829307057956e+18  -2.0246692070136648e+16  2.8172857325337960e+16  3.7846233612935660e+15  3.3013561459899790e+39  -6.0978769155163580e+40  -1.5223802086781307e+39  -5.5752354940217258e+39  -9.9459969230044810e+37  4.7946757292295289e+37  -7.5585162540930025e+36  4.9418528183230420e+34  1.7583376234110714e+35  5.5436807474368301e+33  2.3475995441201853e+33  3.1041653489983335e+31  -6.8052647985312140e+31  -1.6622980574903099e+31  -3.2424691035014441e+29  -2.1580768801220293e+29  -1.6665773749337744e+28  1.3038357077493983e+28  9.6828625507081524e+26  -1.7235892795745456e+25  1.0603122111328198e+25  7.1961408855099059e+23  -4.8872121490703169e+22  1.7227956715622905e+22  2.6715467044986638e+22  4.1371512236773357e+23  -2.7819538002146603e+24  1.2530279225710803e+25  -9.5241005580710143e+25  1.2371622215190075e+26  6.2337165407811974e+26  6.7925935911353219e+28  -1.8025496255106345e+28  -7.8887644490045811e+30  3.4599868912530246e+31  1.2576967270817286e+32  -3.3529331988550406e+33  -1.3203142395979337e+34  -5.9374611680222729e+34  -6.6944849297174539e+34  -4.3792349902927543e+36  -6.8556115619016454e+36  -6.4995338626949548e+38  9.5492996558200330e+38  -3.0338114881193051e+40  2.9298396684494210e+40  1.0491212400778059e+41  1.6629610545459013e+41  8.3951169128190640e+39  5.8489277315924487e+41  -9.3227805928889126e+41  -7.4392407088227532e+40  1.1932859901480785e+13  8.4054217468781063e+28  2.7915150032225332e+53  -2.2581008285933575e+20  3.5600783879352440e+10  -2.5211078152521816e+26  5.3907619646570769e+50  4.5724113139704127e+19  1.9957413174577504e+37  -1.6303663834673963e+28  3.0470118551853420e+20  5.6226206470275220e+35  -1.0143603111656388e+45  -1.1040205236367768e+29  -8.0859718485032797e+13  8.3488465413971508e+26  2.6826071137319445e+53  -2.8815165504915501e+32  -6.4014076180320668e+30  -3.3960577490219746e+42  -5.9461766603588638e+21  6.6789087462766481e+30  -9.9713569611771786e+47  -4.1122139756018196e+25  -1.5596248207038502e+16  7.9703658607421809e+34  -3.0879253375426466e+23  -4.7025571407886130e+31  5.0699318358322311e+24  -1.6116629928747249e+32  -2.9689638894635176e+40  -2.4195979139667169e+19  -1.8408106456780637e+51  -8.9910818249933696e+32  5.6949545107743878e+43  3.2874454023694938e+26  1.8062955282999135e+37  -1.7189936378837073e+28  3.0065380365562885e+21  3.6920235114367938e+36  1.3557569855593095e+35  -6.4045721719148879e+42  -4.3593293536363124e+26  -8.6291463338843611e+25  -4.0534052369331689e+37  1.2693303768580852e+23  -2.8213364864305018e+22  1.8060702940339762e+29  -1.9862278809958469e+14  -2.9572703108308287e+52  6.5247303576197435e+28  -4.2855765183686218e+44  2.5175415113507858e+33  3.9282580426938518e+35  -1.2015844506710552e+27  -2.6298810466621841e+19  -1.2523551777177021e+30  -9.7070485492339583e+22  7.5842823238146840e+37  -5.4340437692802760e+24  8.7210271184226186e+38  -1.5917656893480478e+42  4.7196787105176121e+22  -1.1862101593360077e+26  -5.6208674065477997e+33  -7.1115115186966661e+35  2.1220261090015390e+21  3.7150997718498937e+29  2.7658803950797992e+29  -5.8133039126018004e+45  1.1422493302708937e+36  9.1592953261618259e+31  4.9053220739515047e+26  2.2172937599530761e+25  -2.1677326604333485e+42  5.5464591799536387e+40  2.0847864785322250e+33  -2.1483772849644230e+46  -2.0177193644818647e+33  1.6458219779955661e+41  1.1717802407792187e+24  1.2317335226512627e+25  -1.6854676726179953e+33  -2.4002008712060308e+33  1.4323414856696660e+30  -3.3811836418555812e+49  -4.4414937463953639e+49  9.2795620310459308e+36  5.7011624962369704e+16  3.1614449726197177e+21  1.0583553223491959e+32  -3.3755165582273625e+25  3.0175653867206323e+18  -4.8054482787736747e+24  -1.9195022389154270e+31  1.4564803751748367e+32  -2.7129014308496867e+51  1.4584383071407758e+15  2.2767847165643922e+28  -1.3669160869117162e+52  -1.0718874989699779e+13  -1.0097956040064648e+21  6.8794526997634278e+37  -1.0522448672185651e+47  1.5097827065617944e+28  -4.8061687765061218e+43  9.0729506230373233e+40  -9.7581646022094166e+31  2.1048823251067372e+18  -9.5126481242123527e+30  8.0880275203212414e+24  1.1710128769743517e+26  -1.5622384174902428e+24  2.9896264043506800e+16  -3.0202274349039838e+50  -3.6389363470479998e+27  2.4984869191719776e+19  9.3684263027205033e+37  -1.0979517948852847e+48  -3.7835236988722369e+21  -8.2539744728639210e+28  8.6075490325994825e+32  -5.7500124083015778e+34  3.6599748532311524e+33  1.5240135260655711e+28  -7.8133137871142910e+41  -5.8330738965029353e+24  -5.6760567640063736e+43  2.0299563162129581e+35  -2.7740802066852116e+35  7.1207262025429059e+31  -4.0327652402800973e+33  -3.8702356148081992e+47  -3.4025341559866509e+30  -3.5294472295144082e+27  1.2810881562667513e+24  -1.5010314773147045e+31  8.9929617010420449e+19  1.7796695344039825e+35  -2.1459080694457182e+39  1.4586026120855612e+28  -8.4544086744067550e+14  3.0594892422771076e+32  4.5696418138860746e+30  -2.1266813015279171e+22  1.3571175685193925e+38  -2.4562719458465793e+21  9.3261004918359809e+28  -3.7725187660489251e+34  4.4398241528971671e+51  -7.8164912559542198e+25  -2.3951926144087350e+36  -1.5736433224037718e+37  -1.5535239539632444e+27  -4.4333909860527211e+13  2.5181378417067601e+43  2.8945046431643783e+42  3.3701710909658020e+44  9.2925598610651440e+25  -2.4287283052403465e+21  -1.0156111908807244e+29  -5.4914383995313859e+21  -1.9291089639495781e+23  9.9025382389808974e+24  8.2195533653730660e+25  -4.6151949248757191e+38  -3.9524172604008327e+37  1.1895204660822569e+38  4.9417794897503276e+36  7.6348290740617913e+35  -3.3661018993907117e+54  1.2818660453174527e+21  -2.4526204860775997e+52  1.0137046006448502e+30  -1.5277976188418950e+14  -4.7550337321709809e+25  2.3680555983511520e+11  3.4631407655906482e+27  2.3051559523929105e+27  1.7949191881357673e+12  3.2329899165246010e+49  6.0914928079744589e+17  4.4667173771071812e+51  -3.5261826035651995e+20  2.3853891180603415e+20  1.1349568569838802e+22  -4.2966227383776104e+27  -1.7371095209687162e+28  2.3412239406814738e+23  3.1839943732275584e+36  -5.0373588371712057e+50  -6.4468071582301488e+29  -2.2249823234886340e+20  -1.0930909126167936e+46  -3.7388866922272567e+43  -1.7001166886717401e+36  -4.6304065515738741e+52  -1.9031539864170259e+39  2.6940469223617281e+29  -2.1684081165635714e+28  -9.1960416556650503e+20  -1.0945623315022824e+18  2.6989042363879677e+32  2.2502222786426131e+28  -1.7854139149495535e+34  7.1459957926690930e+36  -2.8873927891736679e+38  -1.9522574414982823e+42  -6.8344288056278053e+41  6.4688442483399778e+51  3.2455929036587524e+12  5.4123300003074074e+17  -6.9623847672377380e+46  -9.5448983924097021e+29  -8.2927503732321891e+20  -2.3696910121411910e+32  4.2791111051833819e+29  2.3517587690113353e+43  4.2713932484555919e+32  -3.6082769050774827e+36  1.6294207800270749e+26  -1.0643489107560259e+41  -3.1186190417179201e+34  2.5372662640021194e+11  3.0767106619366037e+26  2.3259182678523465e+50  -5.3441165031130456e+19  1.2991146083745504e+33  1.7112581802878028e+42  1.4923475857252314e+28  5.5343430346987557e+21  -6.7951045407583020e+21  1.1249849428053806e+29  -1.2511889712027555e+28  -1.5094704135831399e+32  -4.6722785821538150e+14  2.4651327556652245e+15  -2.8148104540625102e+13  -6.6882699030984355e+25  1.3557142453825808e+27  2.5662301043348996e+16  1.5791512505108854e+36  1.4178173995525052e+24  -1.2796675764652440e+25  2.9962283770233049e+31  3.6532021153386445e+33  -7.0239533163520385e+32  1.8913727492927182e+24  -6.7913862375757321e+40  1.4314193772813714e+53  1.9397828521299231e+42  -1.8392356068623503e+44  1.0557359362238654e+30  -8.8971033392317647e+35  1.4653555584001343e+36  -1.6732065747475112e+24  -3.7371519854721494e+24  -1.8706125316250760e+40  -1.6151880612756075e+39  6.5996756188829360e+23  4.4411784320508221e+23  6.0446251024701798e+33  -8.9788419477348603e+48  -3.4471571639180764e+34  1.0602192815642098e+31  6.4611672082427752e+23  -6.1229185022364680e+32  -4.5595630278886752e+19  6.0875717808939628e+29  -2.5900010242208818e+28  1.1048561657661751e+27  5.4197922534567507e+22  1.5734514573049871e+22  -8.7651702917353274e+28  4.2009817888907511e+39  -6.8363412503337546e+38  2.2460441673061483e+22  7.0260059132883011e+26  1.2755354591554380e+23  1.3789931943297032e+19  3.3937126183666901e+30  -3.9900814790558730e+26  2.3577335391653271e+38  2.9180853709409216e+41  -1.1139616283915782e+42  3.0065733699659211e+25  1.3118745919808891e+25  1.9983879474956626e+18  -6.4714578814911245e+43  -4.1509382458911608e+44  -6.9072842919481919e+44  4.1134390326785602e+27  -1.4633146876275719e+43  2.5264277820274188e+37  -1.3702418674522388e+26  -4.2279520161142820e+34  -1.9859262032319209e+35  -1.2564166179450825e+36  2.2152869975685371e+29  6.9198083950362472e+28  9.0639629793840005e+32  -6.6746624896503345e+32  -2.0409044582735737e+52  -6.4038748370815706e+17  -2.6813972997842536e+36  1.0193949469036536e+29  -6.9324299434276383e+48  6.9525810820556793e+48  -7.5927352664076542e+34  -2.1828095251336531e+34  1.1472833605490195e+32  -3.3657486244031897e+26  1.4701083625037903e+25  1.6091546459766159e+25  5.7669468332184239e+41  -1.0063632749821468e+41  5.6162506964324735e+33  2.9535925721351110e+30  2.4276393958637209e+27  -2.9748181441199888e+30  -6.1941743066007431e+32  9.5609686983591752e+42  -7.5352233692144686e+30  -2.8412032418333223e+23  1.4419098891629344e+31  6.8210515393000371e+48  4.7008911800775882e+24  2.7706309977715412e+10  -1.1956695759149555e+18  -1.3277811572314991e+28  -1.9281786262908734e+32  -2.1464252248417149e+24  4.8282440950919798e+34  -5.8371320034044082e+42  2.3565219512528215e+34  -1.9861829975044314e+25  2.3174299216270808e+24  2.9134376550079757e+22  -3.5267976877232949e+32  -3.7368244094729167e+48  -2.0677440232675355e+49  -2.5059536921242930e+50  -3.9100939370585630e+48  5.1686504808356802e+39  1.0128434831968202e+24  -5.6794756414475131e+26  -3.7105974978538730e+34  -2.5204559536589260e+34  -1.7522192391873790e+35  -2.3913028047963530e+40  -2.9932300501486042e+43  -4.6006317334209597e+25  -3.3001783033766525e+26  -2.1999825928793782e+18  3.3671973397762361e+23  -7.9296348346050199e+33  -2.3275178068964246e+17  -1.4718100726617984e+28  -1.1735317564379419e+32  -2.6431304638176836e+38  -3.1876244675326588e+14  -8.8257633198433224e+25  -9.5152850803102249e+45  -2.8682799311795427e+45  -3.0556658546220343e+51  -2.2769484675747415e+30  2.4532681635374744e+20  -1.6066365536087116e+30  -3.1798934406001297e+26  -5.2818241681658200e+25  -7.2431943929115053e+24  1.9383412912586290e+24  -1.1967491692695716e+40  3.1576397609986234e+13  7.5709835522625249e+49  -5.3171458217140174e+22  -6.3675817444434624e+33  -7.1197762989882731e+21  6.3502555803898376e+29  -9.4263781872971768e+44  -1.9896227236164808e+35  2.6125150818341193e+24  3.2490528130543331e+39  -2.4777662344854108e+18  -9.5064785094653444e+35  -5.9083794037466266e+52  -6.5898932407218901e+23  -7.6491698682256774e+32  2.8988744889233350e+22  -7.4478752003289819e+31  -1.9340986076053682e+25  -2.1371385199088306e+25  5.1415630118638490e+18  1.5609786914623186e+10  3.4984682428592515e+49  -3.8466929069236937e+28  -1.2414937665782674e+37  -5.6141760685087109e+49  1.2668605532022316e+33  3.2453099232198311e+24  1.1526953725185369e+32  -9.9066532054239918e+32  -2.5187397133850376e+40  -2.3174566470789470e+15  -4.6900347209557951e+25  2.8714207412200227e+23  -4.9807584354247357e+29  -3.7246469727617887e+33  2.2345077660884637e+32  -5.2364260408430589e+32  -2.1647309335193895e+22  -1.3007467572071972e+32  -1.7265896894382926e+22  3.5539070245418132e+38  -2.0642957596565528e+29  5.3193669212310025e+21  4.5075564543532869e+27  -6.3813933801128187e+46  3.5210071411444200e+20  -3.2357881878145629e+34  -2.1689187227863388e+47  -4.6659361225336576e+45  -4.1335669299141709e+45  4.9068200511737317e+34  1.1862133982183092e+35  -8.8752935460344467e+51  1.1025714863700733e+27  1.0149426147262605e+20  -4.1059757601565584e+30  4.9442977774556801e+36  3.1606300106294069e+42  -5.5992723662972927e+28  -1.4168722193513148e+24  -1.6935664740890779e+53  5.2410523192628122e+22  2.1865347519155586e+29  1.5432723358784089e+24  6.9293889187716479e+33  -9.4004117992073121e+22  2.8857840903457385e+26  -7.7430049105891471e+18  -8.9467751307743996e+29  -2.0328362162514078e+23  1.6456811738151270e+23  6.6352366991075843e+31  2.2191490992759184e+30  -1.4622033036385532e+31  2.7945002682061186e+51  -2.3596963747536559e+14  -2.5789458751425505e+30  -1.7833883298997844e+21  1.5379753657533750e+37  6.8906073347860267e+29  8.9659463368312068e+30  -2.3370682292536064e+32  5.2182450781035047e+28  3.2076851336139516e+21  2.0659800656686197e+22  -4.3079912553067327e+34  -1.2655465759456250e+21  3.6681654152541347e+26  1.3310076872308645e+48  -2.7281657609816257e+27  -1.0724846852584796e+35  -1.4808634911424230e+17  -5.7634238733052533e+33  -2.4821679793788637e+19  -1.8510228555526420e+18  6.7481797315031328e+50  1.4978596688504515e+51  3.1355816239075825e+14  -5.6546916382665760e+15  -7.3321178813266061e+25  2.9775672796343530e+34  -1.0523510111933038e+39  -4.6074850342208469e+37  1.3100680733007114e+36  -1.4314328622484638e+37  -5.0041359074987935e+33  1.0214146548742521e+54  -2.3167549818579423e+38  5.2926999473889411e+33  -6.0167424406725635e+22  2.0466466459277226e+24  9.3926046783629438e+36  1.9009563929863677e+40  1.5114183723203201e+37  6.0223181516637469e+34  1.6210770991530208e+44  2.5973480216769694e+22  -3.1383521108863371e+25  -2.4000203395011650e+22  -4.2526163194047566e+26  -1.6952082105111851e+28  7.4785076811563441e+20  -2.7270122886131891e+52  5.1889796709452568e+12  2.2911839373090242e+13  1.3418765714777673e+14  -3.4438025567881241e+51  1.2121100058696406e+51  -3.3355417939742670e+47  -3.5880320126402521e+28  -3.0565905399639940e+46  3.1824460306521196e+26  5.4616187277863298e+44  7.6072383315782853e+28  -9.1704436147312959e+27  -5.2890797873634424e+21  1.5781911998248701e+20  -6.7591551680012930e+20  -4.9433222020040083e+36  -3.4567540265067168e+13  6.6644163190022419e+20  1.3329938162962020e+27  -1.1407260213440800e+51  3.2180091035906738e+28  -1.9145620303841802e+34  3.6218296629920404e+31  -3.7104563640926352e+20  -6.3976598302380927e+28  7.8910571882472217e+30  -1.3726220197028008e+21  2.2663696054130557e+41  -2.0395627826935096e+46  -6.7326610824230267e+45  -4.9377281744019455e+47  1.1779113351872020e+21  8.2100594121988871e+36  3.4977028491347356e+16  -1.9783481821013541e+47  1.8630296041768006e+24  2.9870610215030233e+30  -2.1247754985961232e+27  -7.6456811784186836e+28  -1.5871156773101311e+53  -1.1693807452855963e+36  2.0668410522480145e+15  -4.1377706292717236e+45  -4.7916530259334931e+24  7.5949203645675387e+41  7.1020698487777497e+24  -2.2172057534283506e+30  -3.8934184642243105e+41  1.0461353661640809e+37  -2.5318129311675001e+39  -7.7259126195836595e+37  1.6956892677462917e+19  3.3177704804925007e+24  -3.5911341293866407e+31  -1.4274372794547797e+37  -4.5214310626767086e+35  -5.2552281892885094e+35  5.5668076796482955e+35  -2.3156877717803884e+37  2.3595654628546551e+26  1.3533986217195878e+25  1.2221843624609899e+32  4.4250289754108461e+31  2.7123548300302798e+21  -4.7853639103692233e+32  3.8651700053943040e+21  4.8803146769643807e+28  1.7620711569605184e+26  6.1929349116915616e+26  5.0230949079224823e+26  1.2460782800607753e+30  -1.6698150204334459e+34  -8.7388702492936574e+42  2.3708983076549399e+42  -1.3414454120768652e+44  -3.5830937145376714e+35  -1.2734844520071323e+51  9.0369895926438999e+29  1.5220522815056048e+34  6.9154038933598968e+16  2.4396738861278855e+15  -2.2561903743243955e+18  -1.8110299703582281e+32  2.5434011859887582e+31  -2.8234400896460137e+31  6.8528411206196693e+37  -2.8375693958186781e+40  1.6867260692260301e+19  -9.2960456543667454e+24  3.6283898941164841e+50  6.9864994740462485e+28  -4.3840261597351664e+27  1.8629455220589429e+33  3.1454958096777642e+20  -8.1415764271294856e+40  -1.1684895961714332e+26  1.4655709957780375e+42  1.042492613417