<?xml version="1.0"?>
<VTKFile type="UnstructuredGrid"  version="0.1"  >
<UnstructuredGrid>
<Piece  NumberOfPoints="2331" NumberOfCells="4248">
<Points>
<DataArray  type="Float64"  NumberOfComponents="3"  format="ascii">0 0.3 0  0 0 0  0.04999999999999999 0 0  0.0514582251803892 0.02410733605106462 0  0.0558116365147896 0.04786313285751154 0  0.06299675146291706 0.07092097740850717 0  0.07290879486935808 0.09294463440875382 0  0.08540322682126872 0.1136129493462312 0  0.1002978503657798 0.132624531648159 0  0.117375468351841 0.1497021496342203 0  0.1363870506537689 0.1645967731787313 0  0.1570553655912463 0.177091205130642 0  0.1790790225914929 0.187003248537083 0  0.2021368671424885 0.1941883634852104 0  0.2258926639489354 0.1985417748196108 0  0.25 0.2 0  0.2741073360510646 0.1985417748196108 0  0.2978631328575116 0.1941883634852104 0  0.3209209774085071 0.187003248537083 0  0.3429446344087537 0.177091205130642 0  0.3636129493462312 0.1645967731787313 0  0.3826245316481591 0.1497021496342202 0  0.3997021496342202 0.132624531648159 0  0.4145967731787313 0.1136129493462312 0  0.427091205130642 0.09294463440875371 0  0.4370032485370829 0.07092097740850713 0  0.4441883634852104 0.04786313285751155 0  0.4485417748196108 0.02410733605106461 0  0.45 0 0  0.55 0 0  0.5514582251803892 0.02410733605106462 0  0.5558116365147896 0.04786313285751154 0  0.5629967514629171 0.07092097740850717 0  0.5729087948693581 0.09294463440875382 0  0.5854032268212688 0.1136129493462312 0  0.6002978503657798 0.132624531648159 0  0.617375468351841 0.1497021496342203 0  0.6363870506537689 0.1645967731787313 0  0.6570553655912463 0.177091205130642 0  0.6790790225914929 0.187003248537083 0  0.7021368671424885 0.1941883634852104 0  0.7258926639489354 0.1985417748196108 0  0.75 0.2 0  0.7741073360510646 0.1985417748196108 0  0.7978631328575116 0.1941883634852104 0  0.8209209774085071 0.187003248537083 0  0.8429446344087537 0.177091205130642 0  0.8636129493462312 0.1645967731787313 0  0.8826245316481591 0.1497021496342202 0  0.8997021496342202 0.132624531648159 0  0.9145967731787312 0.1136129493462312 0  0.927091205130642 0.09294463440875371 0  0.9370032485370829 0.07092097740850713 0  0.9441883634852104 0.04786313285751155 0  0.9485417748196108 0.02410733605106461 0  0.95 0 0  1 0 0  1 0.3 0  0.9758926639489353 0.3014582251803892 0  0.9521368671424885 0.3058116365147896 0  0.9290790225914928 0.3129967514629171 0  0.9070553655912461 0.3229087948693581 0  0.8863870506537688 0.3354032268212687 0  0.867375468351841 0.3502978503657798 0  0.8502978503657798 0.367375468351841 0  0.8354032268212687 0.3863870506537689 0  0.822908794869358 0.4070553655912464 0  0.8129967514629171 0.4290790225914929 0  0.8058116365147896 0.4521368671424885 0  0.8014582251803892 0.4758926639489354 0  0.8 0.4999999999999999 0  0.8014582251803892 0.5241073360510646 0  0.8058116365147896 0.5478631328575115 0  0.8129967514629171 0.5709209774085071 0  0.8229087948693581 0.5929446344087538 0  0.8354032268212688 0.6136129493462312 0  0.8502978503657798 0.632624531648159 0  0.867375468351841 0.6497021496342202 0  0.8863870506537689 0.6645967731787313 0  0.9070553655912463 0.677091205130642 0  0.9290790225914929 0.6870032485370829 0  0.9521368671424885 0.6941883634852104 0  0.9758926639489354 0.6985417748196108 0  1 0.7 0  1 1 0  0.95 1 0  0.9485417748196108 0.9758926639489353 0  0.9441883634852104 0.9521368671424885 0  0.9370032485370829 0.9290790225914928 0  0.927091205130642 0.9070553655912463 0  0.9145967731787312 0.8863870506537688 0  0.8997021496342201 0.8673754683518409 0  0.882624531648159 0.8502978503657798 0  0.863612949346231 0.8354032268212686 0  0.8429446344087537 0.822908794869358 0  0.8209209774085071 0.8129967514629171 0  0.7978631328575114 0.8058116365147896 0  0.7741073360510646 0.8014582251803892 0  0.75 0.8 0  0.7258926639489353 0.8014582251803892 0  0.7021368671424885 0.8058116365147896 0  0.6790790225914928 0.8129967514629171 0  0.6570553655912461 0.8229087948693581 0  0.6363870506537688 0.8354032268212688 0  0.617375468351841 0.8502978503657798 0  0.6002978503657798 0.867375468351841 0  0.5854032268212687 0.8863870506537689 0  0.572908794869358 0.9070553655912463 0  0.5629967514629171 0.9290790225914929 0  0.5558116365147896 0.9521368671424885 0  0.5514582251803892 0.9758926639489355 0  0.55 0.9999999999999999 0  0.45 0.9999999999999999 0  0.4485417748196108 0.9758926639489353 0  0.4441883634852104 0.9521368671424885 0  0.4370032485370829 0.9290790225914928 0  0.427091205130642 0.9070553655912463 0  0.4145967731787313 0.8863870506537688 0  0.3997021496342201 0.8673754683518409 0  0.382624531648159 0.8502978503657798 0  0.363612949346231 0.8354032268212686 0  0.3429446344087536 0.822908794869358 0  0.3209209774085071 0.8129967514629171 0  0.2978631328575115 0.8058116365147896 0  0.2741073360510646 0.8014582251803892 0  0.25 0.8 0  0.2258926639489353 0.8014582251803892 0  0.2021368671424885 0.8058116365147896 0  0.1790790225914928 0.8129967514629171 0  0.1570553655912462 0.8229087948693581 0  0.1363870506537688 0.8354032268212688 0  0.117375468351841 0.8502978503657798 0  0.1002978503657797 0.867375468351841 0  0.08540322682126869 0.8863870506537689 0  0.07290879486935797 0.9070553655912463 0  0.06299675146291703 0.9290790225914929 0  0.05581163651478957 0.9521368671424885 0  0.0514582251803892 0.9758926639489355 0  0.04999999999999999 0.9999999999999999 0  0 1 0  -0 0.7000000000000001 0  0.0241073360510646 0.6985417748196108 0  0.04786313285751161 0.6941883634852104 0  0.07092097740850711 0.6870032485370829 0  0.09294463440875372 0.677091205130642 0  0.1136129493462312 0.6645967731787312 0  0.1326245316481591 0.6497021496342202 0  0.1497021496342202 0.632624531648159 0  0.1645967731787313 0.6136129493462312 0  0.177091205130642 0.5929446344087537 0  0.187003248537083 0.5709209774085071 0  0.1941883634852104 0.5478631328575115 0  0.1985417748196108 0.5241073360510646 0  0.2 0.5 0  0.1985417748196108 0.4758926639489353 0  0.1941883634852104 0.4521368671424885 0  0.1870032485370829 0.4290790225914928 0  0.177091205130642 0.4070553655912463 0  0.1645967731787313 0.3863870506537688 0  0.1497021496342202 0.3673754683518409 0  0.132624531648159 0.3502978503657798 0  0.113612949346231 0.3354032268212686 0  0.09294463440875361 0.322908794869358 0  0.07092097740850711 0.3129967514629171 0  0.04786313285751148 0.3058116365147896 0  0.02410733605106464 0.3014582251803892 0  0.6985417748196108 0.5241073360510646 0  0.7 0.5 0  0.6985417748196108 0.4758926639489353 0  0.6941883634852104 0.4521368671424885 0  0.6870032485370829 0.4290790225914928 0  0.677091205130642 0.4070553655912463 0  0.6645967731787312 0.3863870506537688 0  0.6497021496342201 0.3673754683518409 0  0.632624531648159 0.3502978503657798 0  0.613612949346231 0.3354032268212686 0  0.5929446344087537 0.322908794869358 0  0.5709209774085071 0.3129967514629171 0  0.5478631328575114 0.3058116365147896 0  0.5241073360510646 0.3014582251803892 0  0.4999999999999999 0.3 0  0.4758926639489353 0.3014582251803892 0  0.4521368671424885 0.3058116365147896 0  0.4290790225914928 0.3129967514629171 0  0.4070553655912462 0.3229087948693581 0  0.3863870506537688 0.3354032268212687 0  0.367375468351841 0.3502978503657798 0  0.3502978503657798 0.367375468351841 0  0.3354032268212687 0.3863870506537689 0  0.322908794869358 0.4070553655912464 0  0.3129967514629171 0.4290790225914929 0  0.3058116365147896 0.4521368671424885 0  0.3014582251803892 0.4758926639489354 0  0.3 0.4999999999999999 0  0.3014582251803892 0.5241073360510646 0  0.3058116365147896 0.5478631328575115 0  0.3129967514629171 0.5709209774085071 0  0.3229087948693581 0.5929446344087538 0  0.3354032268212687 0.6136129493462312 0  0.3502978503657798 0.632624531648159 0  0.367375468351841 0.6497021496342202 0  0.3863870506537689 0.6645967731787313 0  0.4070553655912463 0.677091205130642 0  0.4290790225914929 0.6870032485370829 0  0.4521368671424885 0.6941883634852104 0  0.4758926639489354 0.6985417748196108 0  0.4999999999999999 0.7 0  0.5241073360510646 0.6985417748196108 0  0.5478631328575116 0.6941883634852104 0  0.5709209774085071 0.6870032485370829 0  0.5929446344087537 0.677091205130642 0  0.6136129493462312 0.6645967731787312 0  0.6326245316481591 0.6497021496342202 0  0.6497021496342202 0.632624531648159 0  0.6645967731787312 0.6136129493462312 0  0.677091205130642 0.5929446344087537 0  0.6870032485370829 0.5709209774085071 0  0.6941883634852104 0.5478631328575115 0  0 0.15 0  1 0.15 0  1 0.85 0  0 0.8500000000000001 0  0 0.075 0  1 0.075 0  1 0.925 0  0 0.925 0  0.5 0.8127595604293815 0  0.5069440078039168 0.190422209288238 0  0.25 0.3127595604293815 0  0.756944007803917 0.3095777907117619 0  0.756944007803917 0.6904222092882382 0  0.25 0.6872404395706185 0  0 0.225 0  0.4255768646051012 0.2241073097134061 0  1 0.7749999999999999 0  0.6773391559270888 0.2766774022734219 0  1 0.225 0  0.6755768646051011 0.7241073097134062 0  0 0.7750000000000001 0  0.5818971135297744 0.2287925518358889 0  0.8318971135297746 0.728792551835889 0  0.1659156081861886 0.7301636995921477 0  0.08376842746533225 0.2299656297760495 0  0.4236002201977974 0.7746535834185855 0  0.0840843918138115 0.7698363004078523 0  0.3340843918138113 0.7301636995921477 0  0.3340843918138114 0.2698363004078523 0  0.9159156081861887 0.2301636995921477 0  0.5840843918138116 0.7698363004078522 0  0.1659156081861887 0.2698363004078523 0  0.9162315725346678 0.7700343702239506 0  0.8340843918138114 0.2698363004078523 0  0.75 0.6146645247768686 0  0.5 0.1125158665330878 0  0.75 0.3874841334669124 0  0.2504983345544904 0.6122915843562002 0  0.2504983345544902 0.3877084156437999 0  0.5 0.8879783056303169 0  0.7005361650220154 0.3333055947145943 0  0.70416808765371 0.6599554817221275 0  0.449930214263529 0.1678187287522426 0  0.2247310981387008 0.7415600637745463 0  0.5155081196221678 0.7563797802146907 0  0.2752689018612993 0.2584399362254537 0  0.05605196690611226 0.8246131191226815 0  0.9439480330938878 0.1
[...]
<PointData  Scalars="Temperature"> 
<DataArray  type="Float64"  Name="Temperature"  format="ascii">2.4379592084221052e+01  3.0302581805245467e+01  3.0296012230900612e+01  3.0270354183026857e+01  3.0208937369886979e+01  3.0053591044350551e+01  3.0061769363474081e+01  2.8708529794098947e+01  1.5364906967356289e+01  4.0872247541348976e+01  1.7560789376630275e+03  2.0996363967244171e+04  1.6310653989025365e+05  1.0705226353169351e+06  -5.4596416286886539e+06  -2.2876349353958130e+07  2.1273300510737080e+07  -3.9440971682854944e+08  5.7029132858298934e+08  1.3200878723095543e+09  -2.8522901477273212e+10  -7.8007534971637573e+10  -4.6520638948248192e+10  -1.4354616636288440e+11  7.8219731220360413e+10  1.9023884533367977e+10  9.3443202240608196e+09  -2.3902338253540707e+09  1.9206582854304733e+09  4.6835580101132561e+10  -8.5785952011836609e+10  1.5651669988482111e+11  -2.9613154159608901e+12  1.7401592537521105e+13  1.9195117554764559e+14  -1.2930414965995536e+14  -5.1132487903692910e+15  -7.5372783707455250e+15  -3.1103035899056796e+16  7.9513686460970304e+16  -1.1687529754607590e+18  9.5725480943337485e+17  -2.4453470085313376e+16  -3.6874031036533080e+16  -2.4855194181704896e+17  7.8682378962172160e+15  8.0165966538052752e+16  -1.6622462717933120e+15  4.5932373735890590e+15  -2.0833765740635206e+14  3.0298990999494188e+14  -9.6213110714676031e+13  5.4004691353596025e+12  2.0445067802615415e+12  1.8260608142145163e+11  -4.8275656491978073e+10  1.8495489304724932e+09  -4.4004670059318298e+17  -1.2854019355987930e+18  -9.2078646566426808e+18  -6.1542793892845650e+19  -3.3339882703410699e+20  -2.9276176507215733e+21  -6.4703343427802030e+21  3.2449873048562072e+21  -5.9346444628546829e+23  3.1461886335899128e+24  -8.7308018971169231e+24  1.8040059629079820e+26  -7.2274645668407925e+26  -6.2680457027902854e+27  4.2710870751926470e+28  -1.3789321167077144e+29  9.3750037944373703e+29  -7.9969251724727674e+30  7.1914536823463798e+30  -2.4462518299827888e+32  -5.2651266600257190e+33  -9.7241352431701518e+33  -1.5527111626639929e+35  2.3076281776338839e+34  2.8059526158677017e+36  -5.4114710613763435e+36  -1.9565481231429815e+37  -1.3382739062690206e+34  7.0874567109327349e+34  -1.0269895560868792e+35  -9.7762552048901787e+34  -1.6706757083034296e+36  1.9433325706968951e+36  -9.3621946103903131e+36  5.7655888154817333e+36  -4.5092769413695189e+34  -7.3186427642050524e+35  -2.3883049665353352e+35  3.9309503699893009e+34  3.7042574972423083e+33  5.2091266311043054e+31  3.3207046066786071e+31  1.6529053361873905e+30  8.0470174318131837e+28  -5.9459312791145529e+28  2.2620373628233940e+27  1.0215500781275618e+27  -3.1091517544839021e+26  1.8277612594065736e+25  -8.5228437073947730e+24  6.8675311211870731e+23  -2.9116858088604338e+23  -8.6176465628979119e+21  2.6923830625080621e+21  1.6059150434180404e+21  3.5430648474127561e+19  -9.9043470026767892e+18  1.6262068695850579e+20  -2.0922084572332628e+20  -2.6861452543226026e+20  -1.0712372570099281e+20  1.3467947692383126e+20  9.5069200039461159e+19  -7.9150043127734118e+18  -2.5482856066599634e+18  4.5681015689639699e+17  -1.1487896014063595e+17  1.8746994478818804e+16  2.7156858752425265e+15  -6.0160129628586638e+14  9.6906856408391188e+13  1.2332292879292317e+12  -4.2491603461733630e+11  -4.3915364937987228e+10  7.3554736303016320e+07  -4.6182449332264334e+08  3.5803814196449444e+07  2.2810542706045262e+06  9.0558828910236270e+05  2.4762200805127667e+05  1.1542608819721378e+04  -1.7715465680375764e+04  -1.8231850503021400e+04  1.1370681975990282e+07  -1.6493333962486025e+07  -1.9520807651028344e+08  6.3719902072129977e+08  8.9771622019691162e+09  2.4888606919228447e+10  -2.0816341502889032e+11  -3.7101272880592023e+11  1.8056367184601794e+11  -8.5569122555490149e+11  -1.4362962263305573e+11  2.2734280315460865e+10  -1.6923622645514816e+10  6.0775224459266663e+09  2.4714175842939172e+09  -4.1999445565474641e+08  1.0378033371303286e+08  -2.9990974730708618e+07  9.2992498712343499e+06  1.0632487496084899e+06  -5.2190690178765610e+04  1.8777523581368696e+04  6.7525473636074757e+03  -8.0072140512189534e+01  1.7983399540834603e+02  4.9196913824104534e+01  1.7704609648265325e+25  -3.2701873320610919e+26  -8.1642652712975817e+24  -2.9899036563717462e+25  -5.3338684255114495e+23  2.5713027744410408e+23  -4.0535032841376614e+22  2.6502313358061037e+20  9.4296646213600857e+20  2.9729813842468655e+19  1.2589775747030047e+19  1.6647109053787443e+17  -3.6495473824423034e+17  -8.9146208180790496e+16  -1.7388808488227648e+15  -1.1573398041261122e+15  -8.9375700672782766e+13  6.9922484065282297e+13  5.1927539519516797e+12  -9.2433151805674667e+10  5.6862734529252312e+10  3.8591675827787395e+09  -2.6209282259535807e+08  9.2390617151298270e+07  1.4327051598144159e+08  2.2186836274637704e+09  -1.4919143476951609e+10  6.7197749272035011e+10  -5.1076126042409344e+11  6.6346898776640735e+11  3.3430358050677295e+12  3.6427520301449588e+14  -9.6667660440258406e+13  -4.2306097555208280e+16  1.8555319265434851e+17  6.7448129266300198e+17  -1.7981208581371281e+19  -7.0806199608366064e+19  -3.1841591041079037e+20  -3.5901380292091052e+20  -2.3485089954724458e+22  -3.6765474924914197e+22  -3.4855890987244257e+24  5.1211264505941028e+24  -1.6269813303486569e+26  1.5712230176955068e+26  5.6262581823663313e+26  8.9181763581505047e+26  4.5021579411708005e+25  3.1366801329368563e+27  -4.9996481425976299e+27  -3.9895378445967553e+26  2.9822689932414644e+01  4.5076842478289481e+14  1.4970418601871394e+39  -1.2109584260749302e+06  3.0148941374646075e+01  -1.3520270996446003e+12  2.8909736505374500e+36  2.4523265088279860e+05  1.0702820120580630e+23  -8.7433766992990828e+13  1.6340867024740919e+06  3.0153155053208506e+21  -5.4398412524181573e+30  -5.9206736717587400e+14  2.8836235297908722e+01  4.4773439305854697e+12  1.4386364175211202e+39  -1.5453081541485975e+18  -3.4329656681952208e+16  -1.8212478184891610e+28  -3.1888307690400645e+07  3.5817847878316016e+16  -5.3474685812249890e+33  -2.2053101816651181e+11  -5.4734820186053028e+01  4.2743712001415794e+20  -1.6560016413231914e+09  -2.5219011474255328e+17  2.7189179297998558e+10  -8.6430736072085824e+17  -1.5922046697868265e+26  -1.2973118612335777e+05  -9.8719533661001476e+36  -4.8217637536765798e+18  3.0541069221010275e+29  1.7630008704268540e+12  9.6868546814621340e+22  -9.2186695408617828e+13  1.6123576124862701e+07  1.9799692063397349e+22  7.2706933592705230e+20  -3.4346627644407821e+28  -2.3378339421915142e+12  -4.6276639258470709e+11  -2.1737720588947896e+23  6.8072024665670931e+08  -1.5130343857645294e+08  9.6856467885294425e+14  2.8401106346885268e+01  -1.5859336031121677e+38  3.4991015489851338e+14  -2.2982815552223774e+30  1.3501145517398684e+19  2.1066577542089909e+21  -6.4438923635425762e+12  -1.4100909584897256e+05  -6.7161671089039160e+15  -5.2057242361874640e+08  4.0673211876421207e+23  -2.9141849414718433e+10  4.6769380229138370e+24  -8.5363677637870221e+27  2.5310834051139697e+08  -6.3614426624530151e+11  -3.0143752723699245e+19  -3.8137822724942814e+21  1.1380090873410480e+07  1.9923446110125298e+15  1.4832944572841258e+15  -3.1175756867178123e+31  6.1256882381510620e+21  4.9119737838598989e+17  2.6306405210059888e+12  1.1890968065160619e+11  -1.1625180343352265e+28  2.9744714101928446e+26  1.1180354124237076e+19  -1.1521380767626653e+32  -1.0820684636308720e+19  8.8262624153230966e+26  6.2840574948834362e+09  6.6055766942525009e+10  -9.0388755102104730e+18  -1.2871867687994030e+19  7.6814029645363670e+15  -1.8132710886362704e+35  -2.3818973039505483e+35  4.9764707653880061e+22  3.3417471529522419e+02  1.6954313118586808e+07  5.6757789898300518e+17  -1.8102319281634818e+11  1.6210964383113018e+04  -2.5770799066066277e+10  -1.0293962952239430e+17  7.8108557097515994e+17  -1.4548827428314580e+37  3.6790306222807324e+01  1.2210007911105789e+14  -7.3305377155693324e+37  2.9783672520893575e+01  -5.4153391085390151e+06  3.6893330878874947e+23  -5.6430096616882617e+32  8.0967070171612141e+13  -2.5774662995714172e+29  4.8656685930106437e+26  -5.2331371571494067e+17  1.1315728225463794e+04  -5.1014708596360336e+16  4.3374711428164276e+10  6.2799422309761133e+11  -8.3780180207383137e+09  1.8942546111055313e+02  -1.6196964344154926e+36  -1.9514994659860242e+13  1.3401590338297718e+05  5.0241271578552870e+23  -5.8881281150680011e+33  -2.0290366246081989e+07  -4.4264656591593800e+14  4.6160816619431526e+18  -3.0836335330047689e+20  1.9627820578410631e+19  8.1730244737299797e+13  -4.1901468530831860e+27  -3.1281779892979443e+10  -3.0439723829915255e+29  1.0886309320257731e+21  -1.4876918763217216e+21  3.8187239501962765e+17  -2.1627031809027293e+19  -2.0755413162624893e+33  -1.8247210050271248e+16  -1.8927823206390316e+13  6.8702571951629610e+09  -8.0497756680676704e+16  4.8230479715731996e+05  9.5440640198132787e+20  -1.1508138786161197e+25  7.8222369041552453e+13  2.4718649112671930e+01  1.6407518717232993e+18  2.4506209257524080e+16  -1.1405026614098859e+08  7.2779899335076340e+23  -1.3172544508845121e+07  5.0014285477504350e+14  -2.0231374377702215e+20  2.3810019294483864e+37  -4.1918508751662207e+11  -1.2845009261428319e+22  -8.4391806023713182e+22  -8.3312838626881650e+12  2.9280540753443130e+01  1.3504343535336548e+29  1.5522734466126287e+28  1.8073652455186754e+30  4.9834412800642743e+11  -1.3024829612253947e+07  -5.4465495068725175e+14  -2.9449621721039586e+07  -1.0345481946250452e+09  5.3105622771917816e+10  4.4080062068219061e+11  -2.4750502818312828e+24  -2.1196139303982631e+23  6.3791952728849361e+23  2.6501920109439289e+22  4.0944285472404328e+21  -1.8051830075160161e+40  6.8744521246506935e+06  -1.3152985137361283e+38  5.4363247887895210e+15  2.8234846481018970e+01  -2.5500434476917398e+11  3.0263969066868828e+01  1.8572232955332055e+13  1.2362158007438975e+13  2.9984332607236883e+01  1.7337973226054804e+35  3.2886299180271153e+03  2.3954243066705437e+37  -1.8910092977941625e+06  1.2792656379320421e+06  6.0865824755851418e+07  -2.3042054545116801e+13  -9.3158219304467297e+13  1.2555584730236664e+09  1.7075218488238172e+22  -2.7014495839439832e+36  -3.4573126668791855e+15  -1.1931931593909028e+06  -5.8620600329513972e+31  -2.0051011304970344e+29  -9.1174356835132129e+21  -2.4832080176494303e+38  -1.0206290063851724e+25  1.4447713916737235e+15  -1.1628802699312559e+14  -4.9316540502332738e+06  -5.8417124556679828e+03  1.4473762862979320e+18  1.2067558089300962e+14  -9.5748701524245561e+19  3.8322756001659162e+22  -1.5484594806782426e+24  -1.0469623514152330e+28  -3.6651875417765717e+27  3.4691307822513474e+37  3.0062326539904031e+01  2.9312528677468636e+03  -3.7338081404727768e+32  -5.1187661281328610e+15  -4.4472337305759266e+06  -1.2708248520209659e+18  2.2948142644607355e+15  1.2612080960366889e+29  2.2906753095996116e+18  -1.9350573304502022e+22  8.7383055896573096e+11  -5.7079215816750351e+26  -1.6724621741380118e+20  3.0205548486624686e+01  1.6499874252304397e+12  1.2473502762225169e+36  -2.8657390016334160e+05  6.9669299562144881e+18  9.1771856018009137e+27  8.0032054393455875e+13  2.9679759807291169e+07  -3.6440963446687281e+07  6.0331022742695438e+14  -6.7099129423705789e+13  -8.0950322432059315e+17  2.6907739800190232e+01  4.2418690703996916e+01  2.9461977473871912e+01  -3.5868050162520068e+11  7.2704641510198311e+12  1.6631208816635322e+02  8.4687186809047650e+21  7.6035127925654116e+09  -6.8626388403592072e+10  1.6068261492080125e+17  1.9591499540832182e+19  -3.7668263027211203e+18  1.0143109324210497e+10  -3.6421045470337417e+26  7.6764578546038838e+38  1.0402724420106571e+28  -9.8635067017053024e+29  5.6617316690273180e+15  -4.7713646954663798e+21  7.8584518028757995e+21  -8.9731213115446033e+09  -2.0041708345753742e+10  -1.0031775794866227e+26  -8.6619779475042625e+24  3.5392934385651274e+09  2.3817282314380054e+09  3.2416292934444413e+19  -4.8151997163712749e+34  -1.8486515627076996e+20  5.6857750850233528e+16  3.4650137423086505e+09  -3.2836167076948470e+18  -2.4449432515037819e+05  3.2646608642159820e+15  -1.3889733520004644e+14  5.9251550779230586e+12  2.9065423591458762e+08  8.4381543056541800e+07  -4.7006112534763350e+14  2.2529148453772281e+25  -3.6662131532372865e+24  1.2045154171120514e+08  3.7679270754545684e+12  6.8404792546832228e+08  7.3980204513415898e+04  1.8199901649374140e+16  -2.1398126081151724e+12  1.2644122633133098e+24  1.5649193885238899e+27  -5.9739861201508325e+27  1.6123739926344031e+11  7.0353595733075043e+10  1.0745057586838118e+04  -3.4705324291097448e+29  -2.2260773472387692e+30  -3.7042586958416629e+30  2.2059671591037031e+13  -7.8475069611886588e+28  1.3548801070632405e+23  -7.3483733088378381e+11  -2.2673785180015123e+20  -1.0650183337895895e+21  -6.7379479197755145e+21  1.1880206138458882e+15  3.7109751586094000e+14  4.8608486730897428e+18  -3.5795075928635039e+18  -1.0945022337873967e+38  -3.4055883093788248e+03  -1.4379876149459386e+22  5.4668411447417219e+14  -3.7177438796300123e+34  3.7285505914054451e+34  -4.0718543565088168e+20  -1.1706034995935809e+20  6.1526848834963443e+17  -1.8049935521458691e+12  7.8839402826858368e+10  8.6296217733116028e+10  3.0927151761087634e+27  -5.3969545120270080e+26  3.0118994095172948e+19  1.5839612946087340e+16  1.3019015813486020e+13  -1.5953442066586942e+16  -3.3218299796247711e+18  5.1273843589804979e+28  -4.0410117074606832e+16  -1.5236887917902205e+09  7.7327166796625312e+16  3.6580135421224716e+34  2.5210077231348549e+10  3.0299512069528539e+01  -6.3903741756681311e+03  -7.1206637659047859e+13  -1.0340492937144545e+18  -1.1510912177455292e+10  2.5893049162228898e+20  -3.1303542851988007e+28  1.2637625093910754e+20  -1.0651560479475766e+11  1.2427981233077299e+10  1.5624271524705428e+08  -1.8913614165920666e+18  -2.0039951634478417e+34  -1.1088958344876588e+35  -1.3439002020300147e+36  -2.0969166543196878e+34  2.7718590520040086e+25  5.4317067879915991e+09  -3.0458058685976704e+12  -1.9899301182978739e+20  -1.3516775174159827e+20  -9.3968527708452474e+20  -1.2824148876257008e+26  -1.6052181976703109e+29  -2.4672402905263153e+11  -1.7698293079083579e+12  -1.1770207273693028e+04  1.8057704987427845e+09  -4.2525278458822148e+19  -1.2196204215473058e+03  -7.8930662614228281e+13  -6.2934505514692006e+17  -1.4174657638246926e+24  2.7449027895276313e+01  -4.7331062602196320e+11  -5.1028850141927709e+31  -1.5382095810889544e+31  -1.6387014541684092e+37  -1.2210886079828852e+16  1.3156732479096930e+06  -8.6161176711658620e+15  -1.7053225886134663e+12  -2.8325521690262854e+11  -3.8844015485173912e+10  1.0394993600033028e+10  -6.4179615745303948e+25  2.9809765744607279e+01  4.0601892833967236e+35  -2.8514943144500488e+08  -3.4148254294141088e+19  -3.8182122414351761e+07  3.4055337032959390e+15  -5.0552057646289826e+30  -1.0670007145922435e+21  1.4010472594062044e+10  1.7424115799077495e+25  -1.3261105996483666e+04  -5.0981622005304132e+21  -3.1685630501951210e+38  -3.5340472678473964e+09  -4.1021192704308460e+18  1.5546171709341115e+08  -3.9941683750475283e+17  -1.0372240784416521e+11  -1.1461109186472089e+11  2.7595170813701945e+04  3.0271632425720558e+01  1.8761688187416630e+35  -2.0629157637703191e+14  -6.6579192144177282e+22  -3.0107868219644290e+35  6.7939569623455365e+18  1.7404043342859299e+10  6.1817085801515674e+17  -5.3127690611571968e+18  -1.3507571270440237e+26  1.6409389467117169e+01  -2.5151855871244003e+11  1.5398939670989344e+09  -2.6710957543496265e+15  -1.9974646119425479e+19  1.1983283840087048e+18  -2.8082059282742651e+18  -1.1609080260474640e+08  -6.9756828918845658e+17  -9.2594035602450088e+07  1.9058996913182928e+24  -1.1070465895562466e+15  2.8526883503886469e+07  2.4173256068981047e+13  -3.4222323739337672e+32  1.8882826055355466e+06  -1.7352979877514271e+20  -1.1631540993354747e+33  -2.5022619202578288e+31  -2.2167614069145846e+31  2.6314438606035603e+20  6.3614600322679308e+20  -4.7596684755496996e+37  5.9129027321925244e+12  5.4432373918258573e+05  -2.2019647334053984e+16  2.6515425256667775e+22  1.6949919398655457e+28  -3.0027942207936850e+14  -7.5984439061389198e+09  -9.0823080004731661e+38  2.8106871825197613e+08  1.1726012751473002e+15  8.2763062072136011e+09  3.7161130300008227e+19  -5.0412802026634991e+08  1.5475967629711167e+12  -4.1496552839354132e+04  -4.7980028296422350e+15  -1.0901753506012442e+09  8.8255075382748628e+08  3.5583642141801235e+17  1.1900917930863802e+16  -7.8415467985085904e+16  1.4986428068555319e+37  2.8174159303037310e+01  -1.3830446642014984e+16  -9.5639810957338065e+06  8.2478994374435237e+22  3.6953151283009360e+15  4.8082840203018760e+16  -1.2533298102525619e+18  2.7984557882078328e+14  1.7202293435132980e+07  1.1079501202416711e+08  -2.3103021961441329e+20  -6.7868880541430190e+06  1.9671745165055593e+12  7.1379670956997957e+33  -1.4630687425994379e+13  -5.7515523519957094e+20  -7.6578601660356003e+02  -3.0908258728251752e+19  -1.3308640692010405e+05  -9.8983717959173573e+03  3.6189336351280477e+36  8.0327658005297614e+36  3.0649270120257398e+01  -1.2687608317307002e+00  -3.9320896999718549e+11  1.5968185211221767e+20  -5.6435788937117522e+24  -2.4709155990391468e+23  7.0256715194502973e+21  -7.6765301721812343e+22  -2.6836326936961286e+19  5.4776724939330656e+39  -1.2424361623113760e+24  2.8383846640640352e+19  -3.2266760434234017e+08  1.0975816735372339e+10  5.0370936081184075e+22  1.0194504745293257e+26  8.1054788135023895e+22  3.2296664563858538e+20  8.6935598527010561e+29  1.3929136736857262e+08  -1.6830446821628912e+11  -1.2870897245853616e+08  -2.2806055629463960e+12  -9.0911123527470859e+13  4.0106220684986971e+06  -1.4624501550541108e+38  2.9898711809549997e+01  2.9893857251717140e+01  3.0492226579143004e+01  -1.8468525441488896e+37  6.5003391199537656e+36  -1.7887941444766482e+33  -1.9242003401065503e+14  -1.6391973471379317e+32  1.7066914991463687e+12  2.9289729234625089e+30  4.0796321028712569e+14  -4.9179524207767812e+13  -2.8364409784436457e+07  8.4637939425556723e+05  -3.6247970945734978e+06  -2.6510193411998372e+22  2.9756014475802427e+01  3.5740350362017653e+06  7.1486183669726602e+12  -6.1175189923228888e+36  1.7257633682705703e+14  -1.0267469456912456e+20  1.9423254432476090e+17  -1.9898285846312649e+06  -3.4309557935555231e+14  4.2318393124520416e+16  -7.3611143194922013e+06  1.2154153447294518e+27  -1.0937827160689433e+32  -3.6106112484456715e+31  -2.6480193596566029e+33  6.3169646622551791e+06  4.4029147615171667e+22  2.1657496709268113e+02  -1.0609543703730386e+33  9.9911098716895523e+09  1.6019098528795920e+16  -1.1394808414856273e+13  -4.1002483456201656e+14  -8.5114305427328664e+38  -6.2711893870119223e+21  3.9932019669932636e+01  -2.2190157791456582e+31  -2.5696817482349060e+10  4.0730261873641709e+27  3.8087188685455086e+10  -1.1890496098707162e+16  -2.0879738827986742e+27  5.6102454500939822e+22  -1.3577680706517393e+25  -4.1432750984010342e+23  9.0964222810427411e+04  1.7792636947818962e+10  -1.9258639523815344e+17  -7.6551025434882768e+22  -2.4247663225752141e+21  -2.8182891996347231e+21  2.9853839633404285e+21  -1.2418638357582794e+23  1.2653946927496277e+12  7.2580458587895004e+10  6.5543661752061837e+17  2.3730675282360086e+17  1.4545919409451973e+07  -2.5663090048885683e+18  2.0728273172310792e+07  2.6172294807184938e+14  9.4496869249055762e+11  3.3211653133078281e+12  2.6938000821193677e+12  6.6825051778969960e+15  -8.9549330076046017e+19  -4.6865069895143792e+28  1.2714723040030000e+28  -7.1939428328945981e+29  -1.9215520151043598e+21  -6.8294798012954672e+36  4.8463833060706550e+15  8.1625066538307469e+19  3.9986516374835224e+02  4.2384565328112501e+01  -1.2071605864117069e+04  -9.7122446863080973e+17  1.3639826539636390e+17  -1.5141627392477437e+17  3.6750617521082158e+23  -1.5217400450374263e+26  9.0483727367225380e+04  -4.9853106488133018e+10  1.9458435832520365e+36  3.7467404462269762e+14  -2.3510784178827551e+13  9.9906589309063352e+18  1.6869028204295668e+06  -4.3661885052580720e+26  -6.2664103061439551e+11  7.8596071567700180e+27  5.5907099911499275e+10  9.69214