<?xml version="1.0"?>
<VTKFile type="UnstructuredGrid"  version="0.1"  >
<UnstructuredGrid>
<Piece  NumberOfPoints="2331" NumberOfCells="4248">
<Points>
<DataArray  type="Float64"  NumberOfComponents="3"  format="ascii">0 0.3 0  0 0 0  0.04999999999999999 0 0  0.0514582251803892 0.02410733605106462 0  0.0558116365147896 0.04786313285751154 0  0.06299675146291706 0.07092097740850717 0  0.07290879486935808 0.09294463440875382 0  0.08540322682126872 0.1136129493462312 0  0.1002978503657798 0.132624531648159 0  0.117375468351841 0.1497021496342203 0  0.1363870506537689 0.1645967731787313 0  0.1570553655912463 0.177091205130642 0  0.1790790225914929 0.187003248537083 0  0.2021368671424885 0.1941883634852104 0  0.2258926639489354 0.1985417748196108 0  0.25 0.2 0  0.2741073360510646 0.1985417748196108 0  0.2978631328575116 0.1941883634852104 0  0.3209209774085071 0.187003248537083 0  0.3429446344087537 0.177091205130642 0  0.3636129493462312 0.1645967731787313 0  0.3826245316481591 0.1497021496342202 0  0.3997021496342202 0.132624531648159 0  0.4145967731787313 0.1136129493462312 0  0.427091205130642 0.09294463440875371 0  0.4370032485370829 0.07092097740850713 0  0.4441883634852104 0.04786313285751155 0  0.4485417748196108 0.02410733605106461 0  0.45 0 0  0.55 0 0  0.5514582251803892 0.02410733605106462 0  0.5558116365147896 0.04786313285751154 0  0.5629967514629171 0.07092097740850717 0  0.5729087948693581 0.09294463440875382 0  0.5854032268212688 0.1136129493462312 0  0.6002978503657798 0.132624531648159 0  0.617375468351841 0.1497021496342203 0  0.6363870506537689 0.1645967731787313 0  0.6570553655912463 0.177091205130642 0  0.6790790225914929 0.187003248537083 0  0.7021368671424885 0.1941883634852104 0  0.7258926639489354 0.1985417748196108 0  0.75 0.2 0  0.7741073360510646 0.1985417748196108 0  0.7978631328575116 0.1941883634852104 0  0.8209209774085071 0.187003248537083 0  0.8429446344087537 0.177091205130642 0  0.8636129493462312 0.1645967731787313 0  0.8826245316481591 0.1497021496342202 0  0.8997021496342202 0.132624531648159 0  0.9145967731787312 0.1136129493462312 0  0.927091205130642 0.09294463440875371 0  0.9370032485370829 0.07092097740850713 0  0.9441883634852104 0.04786313285751155 0  0.9485417748196108 0.02410733605106461 0  0.95 0 0  1 0 0  1 0.3 0  0.9758926639489353 0.3014582251803892 0  0.9521368671424885 0.3058116365147896 0  0.9290790225914928 0.3129967514629171 0  0.9070553655912461 0.3229087948693581 0  0.8863870506537688 0.3354032268212687 0  0.867375468351841 0.3502978503657798 0  0.8502978503657798 0.367375468351841 0  0.8354032268212687 0.3863870506537689 0  0.822908794869358 0.4070553655912464 0  0.8129967514629171 0.4290790225914929 0  0.8058116365147896 0.4521368671424885 0  0.8014582251803892 0.4758926639489354 0  0.8 0.4999999999999999 0  0.8014582251803892 0.5241073360510646 0  0.8058116365147896 0.5478631328575115 0  0.8129967514629171 0.5709209774085071 0  0.8229087948693581 0.5929446344087538 0  0.8354032268212688 0.6136129493462312 0  0.8502978503657798 0.632624531648159 0  0.867375468351841 0.6497021496342202 0  0.8863870506537689 0.6645967731787313 0  0.9070553655912463 0.677091205130642 0  0.9290790225914929 0.6870032485370829 0  0.9521368671424885 0.6941883634852104 0  0.9758926639489354 0.6985417748196108 0  1 0.7 0  1 1 0  0.95 1 0  0.9485417748196108 0.9758926639489353 0  0.9441883634852104 0.9521368671424885 0  0.9370032485370829 0.9290790225914928 0  0.927091205130642 0.9070553655912463 0  0.9145967731787312 0.8863870506537688 0  0.8997021496342201 0.8673754683518409 0  0.882624531648159 0.8502978503657798 0  0.863612949346231 0.8354032268212686 0  0.8429446344087537 0.822908794869358 0  0.8209209774085071 0.8129967514629171 0  0.7978631328575114 0.8058116365147896 0  0.7741073360510646 0.8014582251803892 0  0.75 0.8 0  0.7258926639489353 0.8014582251803892 0  0.7021368671424885 0.8058116365147896 0  0.6790790225914928 0.8129967514629171 0  0.6570553655912461 0.8229087948693581 0  0.6363870506537688 0.8354032268212688 0  0.617375468351841 0.8502978503657798 0  0.6002978503657798 0.867375468351841 0  0.5854032268212687 0.8863870506537689 0  0.572908794869358 0.9070553655912463 0  0.5629967514629171 0.9290790225914929 0  0.5558116365147896 0.9521368671424885 0  0.5514582251803892 0.9758926639489355 0  0.55 0.9999999999999999 0  0.45 0.9999999999999999 0  0.4485417748196108 0.9758926639489353 0  0.4441883634852104 0.9521368671424885 0  0.4370032485370829 0.9290790225914928 0  0.427091205130642 0.9070553655912463 0  0.4145967731787313 0.8863870506537688 0  0.3997021496342201 0.8673754683518409 0  0.382624531648159 0.8502978503657798 0  0.363612949346231 0.8354032268212686 0  0.3429446344087536 0.822908794869358 0  0.3209209774085071 0.8129967514629171 0  0.2978631328575115 0.8058116365147896 0  0.2741073360510646 0.8014582251803892 0  0.25 0.8 0  0.2258926639489353 0.8014582251803892 0  0.2021368671424885 0.8058116365147896 0  0.1790790225914928 0.8129967514629171 0  0.1570553655912462 0.8229087948693581 0  0.1363870506537688 0.8354032268212688 0  0.117375468351841 0.8502978503657798 0  0.1002978503657797 0.867375468351841 0  0.08540322682126869 0.8863870506537689 0  0.07290879486935797 0.9070553655912463 0  0.06299675146291703 0.9290790225914929 0  0.05581163651478957 0.9521368671424885 0  0.0514582251803892 0.9758926639489355 0  0.04999999999999999 0.9999999999999999 0  0 1 0  -0 0.7000000000000001 0  0.0241073360510646 0.6985417748196108 0  0.04786313285751161 0.6941883634852104 0  0.07092097740850711 0.6870032485370829 0  0.09294463440875372 0.677091205130642 0  0.1136129493462312 0.6645967731787312 0  0.1326245316481591 0.6497021496342202 0  0.1497021496342202 0.632624531648159 0  0.1645967731787313 0.6136129493462312 0  0.177091205130642 0.5929446344087537 0  0.187003248537083 0.5709209774085071 0  0.1941883634852104 0.5478631328575115 0  0.1985417748196108 0.5241073360510646 0  0.2 0.5 0  0.1985417748196108 0.4758926639489353 0  0.1941883634852104 0.4521368671424885 0  0.1870032485370829 0.4290790225914928 0  0.177091205130642 0.4070553655912463 0  0.1645967731787313 0.3863870506537688 0  0.1497021496342202 0.3673754683518409 0  0.132624531648159 0.3502978503657798 0  0.113612949346231 0.3354032268212686 0  0.09294463440875361 0.322908794869358 0  0.07092097740850711 0.3129967514629171 0  0.04786313285751148 0.3058116365147896 0  0.02410733605106464 0.3014582251803892 0  0.6985417748196108 0.5241073360510646 0  0.7 0.5 0  0.6985417748196108 0.4758926639489353 0  0.6941883634852104 0.4521368671424885 0  0.6870032485370829 0.4290790225914928 0  0.677091205130642 0.4070553655912463 0  0.6645967731787312 0.3863870506537688 0  0.6497021496342201 0.3673754683518409 0  0.632624531648159 0.3502978503657798 0  0.613612949346231 0.3354032268212686 0  0.5929446344087537 0.322908794869358 0  0.5709209774085071 0.3129967514629171 0  0.5478631328575114 0.3058116365147896 0  0.5241073360510646 0.3014582251803892 0  0.4999999999999999 0.3 0  0.4758926639489353 0.3014582251803892 0  0.4521368671424885 0.3058116365147896 0  0.4290790225914928 0.3129967514629171 0  0.4070553655912462 0.3229087948693581 0  0.3863870506537688 0.3354032268212687 0  0.367375468351841 0.3502978503657798 0  0.3502978503657798 0.367375468351841 0  0.3354032268212687 0.3863870506537689 0  0.322908794869358 0.4070553655912464 0  0.3129967514629171 0.4290790225914929 0  0.3058116365147896 0.4521368671424885 0  0.3014582251803892 0.4758926639489354 0  0.3 0.4999999999999999 0  0.3014582251803892 0.5241073360510646 0  0.3058116365147896 0.5478631328575115 0  0.3129967514629171 0.5709209774085071 0  0.3229087948693581 0.5929446344087538 0  0.3354032268212687 0.6136129493462312 0  0.3502978503657798 0.632624531648159 0  0.367375468351841 0.6497021496342202 0  0.3863870506537689 0.6645967731787313 0  0.4070553655912463 0.677091205130642 0  0.4290790225914929 0.6870032485370829 0  0.4521368671424885 0.6941883634852104 0  0.4758926639489354 0.6985417748196108 0  0.4999999999999999 0.7 0  0.5241073360510646 0.6985417748196108 0  0.5478631328575116 0.6941883634852104 0  0.5709209774085071 0.6870032485370829 0  0.5929446344087537 0.677091205130642 0  0.6136129493462312 0.6645967731787312 0  0.6326245316481591 0.6497021496342202 0  0.6497021496342202 0.632624531648159 0  0.6645967731787312 0.6136129493462312 0  0.677091205130642 0.5929446344087537 0  0.6870032485370829 0.5709209774085071 0  0.6941883634852104 0.5478631328575115 0  0 0.15 0  1 0.15 0  1 0.85 0  0 0.8500000000000001 0  0 0.075 0  1 0.075 0  1 0.925 0  0 0.925 0  0.5 0.8127595604293815 0  0.5069440078039168 0.190422209288238 0  0.25 0.3127595604293815 0  0.756944007803917 0.3095777907117619 0  0.756944007803917 0.6904222092882382 0  0.25 0.6872404395706185 0  0 0.225 0  0.4255768646051012 0.2241073097134061 0  1 0.7749999999999999 0  0.6773391559270888 0.2766774022734219 0  1 0.225 0  0.6755768646051011 0.7241073097134062 0  0 0.7750000000000001 0  0.5818971135297744 0.2287925518358889 0  0.8318971135297746 0.728792551835889 0  0.1659156081861886 0.7301636995921477 0  0.08376842746533225 0.2299656297760495 0  0.4236002201977974 0.7746535834185855 0  0.0840843918138115 0.7698363004078523 0  0.3340843918138113 0.7301636995921477 0  0.3340843918138114 0.2698363004078523 0  0.9159156081861887 0.2301636995921477 0  0.5840843918138116 0.7698363004078522 0  0.1659156081861887 0.2698363004078523 0  0.9162315725346678 0.7700343702239506 0  0.8340843918138114 0.2698363004078523 0  0.75 0.6146645247768686 0  0.5 0.1125158665330878 0  0.75 0.3874841334669124 0  0.2504983345544904 0.6122915843562002 0  0.2504983345544902 0.3877084156437999 0  0.5 0.8879783056303169 0  0.7005361650220154 0.3333055947145943 0  0.70416808765371 0.6599554817221275 0  0.449930214263529 0.1678187287522426 0  0.2247310981387008 0.7415600637745463 0  0.5155081196221678 0.7563797802146907 0  0.2752689018612993 0.2584399362254537 0  0.05605196690611226 0.8246131191226815 0  0.9439480330938878 0.1
[...]
<PointData  Scalars="Temperature"> 
<DataArray  type="Float64"  Name="Temperature"  format="ascii">3.4472755913967283e+01  3.6603309876358800e+01  3.6595002508130086e+01  3.6554153736597996e+01  3.6438308161857584e+01  3.6253921181969893e+01  3.6000727102725136e+01  3.5677043696714634e+01  3.5286592991070677e+01  3.4825298465987835e+01  3.4282510895322019e+01  3.3664885835117992e+01  3.2988924268182096e+01  3.2267379770415062e+01  3.1513183613053194e+01  3.0749984368366835e+01  2.9989176537923910e+01  2.9239330164619023e+01  2.8525832246277872e+01  2.7844192029087157e+01  2.7221657734115063e+01  2.6667558449647693e+01  2.6185223290475129e+01  2.5798455383447923e+01  2.5499850571863831e+01  2.5293471269716303e+01  2.5156660334087967e+01  2.5085717039483018e+01  2.5063269604409591e+01  2.4699402412643977e+01  2.4671091764390596e+01  2.4583611204011529e+01  2.4426337792057087e+01  2.4201523621376150e+01  2.3902874222733207e+01  2.3548081665886180e+01  2.3161859853492139e+01  2.2757568151559955e+01  2.2358136777499919e+01  2.1982230882900410e+01  2.1642079868833491e+01  2.1345137777191990e+01  2.1093074062705004e+01  2.0882671326134815e+01  2.0709419355901776e+01  2.0570977187206168e+01  2.0460323457598697e+01  2.0374626247971410e+01  2.0310132073927470e+01  2.0262425739432871e+01  2.0228255205206313e+01  2.0204177375841599e+01  2.0187922351238264e+01  2.0177207332453481e+01  2.0170931630387123e+01  2.0168806301484274e+01  2.0166747614284830e+01  2.0239668599433525e+01  2.0250406585947612e+01  2.0281012986223800e+01  2.0328972653434878e+01  2.0389877557715476e+01  2.0458745451073842e+01  2.0527782734757952e+01  2.0591693302318653e+01  2.0642185209749595e+01  2.0676035203204883e+01  2.0686834312668964e+01  2.0679014282058183e+01  2.0654532092400519e+01  2.0618899611558849e+01  2.0578059502249157e+01  2.0532268435698107e+01  2.0482442999956504e+01  2.0430269661120011e+01  2.0374983139609967e+01  2.0318792556449701e+01  2.0265699729860440e+01  2.0216045252145953e+01  2.0173386546576978e+01  2.0138577974534972e+01  2.0113051548789315e+01  2.0097423582198125e+01  2.0091887181075080e+01  2.0033742660217396e+01  2.0034094694202931e+01  2.0035338554040223e+01  2.0038864145896394e+01  2.0044614775452470e+01  2.0052939390257123e+01  2.0064675802868774e+01  2.0080756989725536e+01  2.0102310802592651e+01  2.0130721510709989e+01  2.0167568682161157e+01  2.0213897779175916e+01  2.0269432905523967e+01  2.0334882013991518e+01  2.0408090334600736e+01  2.0489989679517244e+01  2.0576955141314201e+01  2.0667533958863281e+01  2.0755119602505975e+01  2.0836342709552312e+01  2.0902629293076309e+01  2.0951347534038298e+01  2.0974563159932320e+01  2.0977292785317861e+01  2.0960743784551120e+01  2.0933864021313227e+01  2.0911256999462687e+01  2.0902116660513432e+01  2.0969520929985052e+01  2.0995893520844323e+01  2.1066908622599371e+01  2.1180074300354004e+01  2.1336459129924439e+01  2.1539561836216262e+01  2.1785419984365255e+01  2.2074372627490320e+01  2.2396115237797101e+01  2.2748376933296775e+01  2.3111369374429831e+01  2.3468689775219527e+01  2.3802913484986341e+01  2.4091168482972108e+01  2.4321773647175373e+01  2.4479234258820785e+01  2.4562765355015891e+01  2.4570550940618830e+01  2.4504342866037859e+01  2.4379811433270692e+01  2.4203685276165448e+01  2.3989333456983729e+01  2.3758706758108957e+01  2.3534492790262981e+01  2.3339964346866054e+01  2.3207022422510494e+01  2.3152930508931391e+01  2.3153456843047170e+01  2.5286677608324876e+01  2.5294032887915581e+01  2.5318760030728644e+01  2.5358414900814989e+01  2.5413524162646205e+01  2.5486315530987756e+01  2.5584399167951865e+01  2.5720198004635499e+01  2.5902636464693817e+01  2.6136610460031832e+01  2.6439228452578003e+01  2.6804912742762784e+01  2.7231914703174834e+01  2.7703056775254904e+01  2.8209771671632851e+01  2.8744948015671689e+01  2.9311487671535190e+01  2.9917285282442400e+01  3.0568124290078057e+01  3.1246834032243882e+01  3.1934897066824831e+01  3.2598700751066346e+01  3.3211172440088234e+01  3.3736959789550909e+01  3.4132874973915285e+01  3.4385200551204292e+01  2.0651399690273735e+01  2.0692477272382551e+01  2.0749377827355460e+01  2.0824745822373391e+01  2.0923592759317803e+01  2.1054242090354514e+01  2.1225867153800518e+01  2.1445433084512530e+01  2.1723252626781470e+01  2.2055958496509419e+01  2.2449640282028980e+01  2.2905817171869046e+01  2.3417020094607462e+01  2.3979108642483407e+01  2.4580827557332277e+01  2.5211863013875448e+01  2.5850349207952178e+01  2.6483085834593627e+01  2.7072882450788157e+01  2.7607537909473876e+01  2.8039916561204290e+01  2.8358278449992447e+01  2.8532203660045219e+01  2.8566391666362176e+01  2.8446103302765728e+01  2.8201690054911882e+01  2.7848112961454767e+01  2.7418805371386231e+01  2.6945777572658308e+01  2.6449355805745803e+01  2.5948286272794434e+01  2.5434604379524504e+01  2.4928353462438793e+01  2.4428902639758899e+01  2.3941767185171337e+01  2.3479242409232754e+01  2.3040180682788851e+01  2.2641635804160778e+01  2.2281106286811031e+01  2.1966213020231955e+01  2.1691640389949118e+01  2.1457604202033298e+01  2.1258777467130098e+01  2.1095111103656148e+01  2.0958362882681797e+01  2.0846766579328875e+01  2.0758618028258127e+01  2.0692241898146790e+01  2.0646619380288307e+01  2.0621279141508818e+01  2.0614446142821233e+01  2.0625233059995942e+01  3.5689027697782464e+01  2.0204371919290473e+01  2.0059275272671176e+01  2.4160035664916993e+01  3.6337793639255729e+01  2.0178619951140732e+01  2.0041377747770806e+01  2.3482443827325419e+01  2.1415017464907809e+01  2.4586210215640058e+01  3.0117820149434063e+01  2.0941433578010550e+01  2.0436468179947607e+01  2.4840175724934337e+01  3.4930547312758172e+01  2.6254656633408416e+01  2.0079342666618224e+01  2.1658754611399701e+01  2.0226497385619997e+01  2.0661514085778553e+01  2.4881273918901503e+01  2.3143083673767364e+01  2.0248194692179215e+01  2.5005123468076516e+01  3.4333756070797669e+01  2.2203591580825282e+01  2.4896647258061453e+01  2.3524920828270140e+01  2.8443296145778085e+01  2.0312346185421575e+01  2.1031462553825779e+01  3.2422462651880124e+01  2.0115818035421992e+01  2.0572819137109835e+01  2.0512394580395288e+01  2.4817996803285816e+01  2.0852685269449623e+01  2.5752448608961195e+01  2.9288841799808992e+01  2.1156603655710235e+01  2.1259346730310746e+01  2.0587843394962601e+01  2.5643134551065312e+01  2.4560364116253492e+01  2.1474954802879459e+01  2.9905998643761240e+01  2.4427257128196523e+01  2.0244016726325867e+01  3.5221094241212633e+01  2.0077597485129726e+01  2.4962772363267050e+01  2.0477085902901191e+01  2.1178530794824983e+01  2.1716263530916986e+01  2.5354305263579946e+01  3.1192483017875336e+01  2.4369068496819107e+01  2.8871928100666771e+01  2.1081398696347247e+01  2.4863497590525540e+01  2.0751034868890155e+01  2.0587720972877953e+01  2.8499383794919996e+01  2.6773273032478652e+01  2.0933410585387310e+01  2.1000969782643274e+01  3.1210805498570942e+01  2.4109194081206240e+01  2.3713810375505247e+01  2.0393497060920144e+01  2.0662289602312242e+01  2.2278170836224774e+01  2.7138716463738572e+01  2.7733454447033385e+01  2.0784425934663226e+01  2.0917842577976035e+01  2.2237359034931888e+01  2.0347536503695910e+01  2.0811738864409591e+01  2.0664083813482232e+01  2.4879534404805515e+01  2.7659178157793747e+01  2.2790410358662076e+01  2.2950970886396149e+01  2.3996300501837620e+01  2.0172154349622868e+01  2.0171121719559736e+01  2.1769736227682472e+01  3.3588972272545277e+01  2.5105193166113537e+01  2.0370343553631265e+01  2.4790118344947143e+01  3.3299868159036187e+01  2.5187669378426701e+01  2.0254946582195810e+01  2.0445302339528322e+01  2.0098857655995495e+01  3.4467129462544058e+01  2.0210908353031531e+01  2.0057386712800664e+01  3.5826943024035295e+01  2.4005053319083842e+01  2.0726675583068566e+01  2.0331435832736936e+01  2.4209401679336629e+01  2.0545580548285493e+01  2.0928717514094298e+01  2.3715962725071996e+01  3.2252631025161769e+01  2.0315215437974185e+01  2.8084169079241491e+01  2.5372888797913372e+01  2.4564701908091845e+01  3.4625599699880389e+01  2.0112229951953193e+01  2.5735156540823269e+01  3.0220619036449008e+01  2.1176325722884751e+01  2.0257353414023555e+01  2.9340564718857824e+01  2.5061442288061684e+01  2.1593168427314563e+01  2.1731934302930089e+01  2.2217904957302032e+01  2.5861008286079674e+01  2.0755679506046192e+01  2.6729094828562200e+01  2.0625136303009857e+01  2.1403122697571135e+01  2.2157865555177274e+01  2.3133089723920239e+01  2.1254344055280420e+01  2.0264432269930676e+01  2.2822470198352931e+01  2.4646405667913328e+01  2.8794023465661617e+01  2.3549272664109871e+01  3.2218286012108692e+01  2.0518555334439636e+01  2.1138796015522260e+01  2.5331091720641531e+01  3.4893131850993008e+01  2.0610378383817128e+01  2.0250324724427568e+01  2.4783353576673456e+01  2.1266178864439762e+01  2.4529506385644336e+01  2.0216424733065260e+01  2.0732694530855465e+01  2.0075744098082144e+01  2.5392136397833433e+01  2.0977516730021058e+01  2.1062843316241374e+01  2.4954521684694715e+01  3.5308460249825458e+01  2.0513185199696167e+01  2.0584415281412216e+01  2.0469504654920371e+01  2.6341638617579580e+01  2.9470570568191569e+01  2.5200979603943736e+01  2.8793743661921891e+01  2.5221583480511793e+01  2.5107988845120172e+01  2.4587419720871619e+01  2.0735910689840871e+01  2.0895022340310227e+01  2.1031365743575215e+01  2.1010951502003334e+01  2.1189884558764479e+01  2.0069552209627584e+01  2.5163397385759463e+01  2.0049669609176025e+01  2.0233968887697170e+01  3.4615084346185853e+01  2.0169851338250222e+01  3.6534261145319356e+01  2.0190992975977423e+01  2.0190155306382984e+01  3.6043728370710539e+01  2.0035757512982592e+01  2.3246192493957142e+01  2.0087835445261224e+01  2.3801291956779941e+01  2.3662998183303905e+01  2.8676502645466446e+01  2.6095113729517429e+01  2.4935986391047454e+01  2.9186254380474981e+01  2.1430334046908538e+01  2.0129448403616369e+01  2.4039480164224599e+01  3.1066840713075457e+01  2.0385684385477155e+01  2.0441478419158358e+01  2.1789371726666968e+01  2.0085279186342881e+01  2.1230490597765460e+01  2.4271947165471147e+01  2.5324647332990320e+01  3.0007917191700994e+01  3.3257219675782629e+01  2.2684575774564685e+01  2.4268459734925862e+01  2.0940755610019895e+01  2.0825143792200539e+01  2.1365075458001460e+01  2.0644796801191305e+01  2.0686141870744713e+01  2.0046758461918820e+01  3.6164654342946385e+01  3.4009770337768217e+01  2.0321066610649410e+01  2.4396752410901573e+01  3.0945092541744717e+01  2.0449612508505403e+01  2.3670700945571557e+01  2.0560761653900798e+01  2.0302378695523927e+01  2.1287828767336816e+01  2.6972839366146491e+01  2.0780978989390015e+01  2.2494925409666060e+01  3.6435255571829771e+01  2.0178069343209117e+01  2.0038787700438181e+01  2.3361932516466599e+01  2.2572435256907056e+01  2.0596965766190909e+01  2.5601852001642438e+01  2.4196034421908863e+01  2.4348890581361310e+01  2.0243125024223488e+01  2.0217136542731378e+01  2.3092618216676939e+01  3.5135059096411680e+01  3.4796474443937129e+01  3.5455984735549237e+01  2.6208007336346871e+01  2.5922344927895836e+01  3.4023041899389995e+01  2.1655952697136058e+01  2.5372431811400983e+01  2.4617560053734319e+01  2.0394896547219496e+01  2.1476630627742992e+01  2.0969328127729927e+01  2.7429098094099892e+01  2.0876401769672206e+01  2.0065849732758920e+01  2.0633547892522895e+01  2.0514541061596027e+01  2.3255918630037080e+01  2.0939113136201502e+01  2.0575393108334517e+01  2.4982643054944877e+01  2.4769271039312208e+01  2.0680736130237282e+01  2.0767115226522620e+01  2.7992696733865142e+01  2.8427117827495930e+01  2.1412144672116614e+01  2.0203220072329501e+01  2.1010010390180927e+01  2.2175777698247288e+01  2.9145543136765657e+01  2.3271633255266739e+01  3.1693249374032398e+01  2.3985299170463357e+01  2.4313371455746353e+01  2.4856529157583989e+01  2.9657799597660361e+01  3.0382780655252716e+01  2.4593128514686946e+01  2.1051897770623299e+01  2.1004477658612764e+01  2.9459413843528953e+01  2.5183095098244177e+01  2.8614400016045661e+01  3.1534265356232467e+01  2.4213108397021191e+01  2.5665566783203619e+01  2.1228013348237077e+01  2.0643054018452030e+01  2.0610918082130478e+01  2.7229707764304987e+01  2.7281022050592856e+01  3.2968814494852317e+01  2.0572235505470214e+01  2.0518748760642815e+01  2.0463066766344564e+01  2.6512532898755801e+01  2.0702087960458361e+01  2.1467522074602414e+01  2.6521212385215463e+01  2.1649434936032584e+01  2.1918574265643343e+01  2.1111169390020066e+01  2.4908758800914963e+01  2.4776596836657017e+01  2.1319825559184505e+01  2.1880608553087622e+01  2.0093538026448638e+01  3.3981513714050543e+01  2.0642438271160017e+01  2.3766190252857182e+01  2.0188466170777048e+01  2.0145156659751247e+01  2.0782754995183247e+01  2.0612493719656168e+01  2.0503211767019135e+01  2.4655140222157357e+01  2.7418503776886979e+01  2.7853280588684704e+01  2.0819331088819091e+01  2.0896806513002051e+01  2.2698033038188509e+01  2.3251817325925987e+01  2.4584130749791431e+01  2.2704749855458207e+01  2.0379155346340202e+01  2.0550360136915867e+01  2.0281085030005404e+01  2.4646733290518497e+01  2.3690831942964230e+01  2.0033909386675969e+01  2.0167720316133980e+01  3.6599819327558116e+01  2.3152635372223987e+01  2.5091315294366826e+01  2.2650543224600206e+01  2.7877521225848142e+01  2.1941585003679730e+01  2.0707661189865824e+01  2.0445667542948581e+01  2.4661770701996666e+01  2.5067926020011583e+01  2.8935105036690093e+01  2.0752623922295882e+01  2.0215314933968994e+01  2.0188335083137424e+01  2.0147313712344989e+01  2.0217989445852769e+01  2.1027023815344023e+01  2.8231361884164741e+01  2.6089594989961991e+01  2.0950201754202219e+01  2.0910438848639036e+01  2.1075404238222180e+01  2.0888467106170040e+01  2.0547197539633775e+01  2.6848154569132248e+01  2.6543622081314840e+01  3.2760093209629801e+01  2.8583432209419929e+01  2.2545150596803452e+01  3.3824522596287892e+01  2.5148347488140129e+01  2.3178914439946219e+01  2.0806116267640469e+01  3.4759958681159148e+01  2.5811735053949565e+01  2.0382359124095732e+01  2.0407774521306841e+01  2.0089225709775388e+01  2.4787721763250556e+01  3.1894392639358216e+01  2.3810369204898574e+01  2.4831717707804675e+01  2.4998105968406541e+01  2.4919905183055253e+01  2.7914378670146245e+01  2.0707079160958045e+01  3.5501187285977984e+01  2.0133768784048900e+01  2.8916693304029945e+01  2.2063035880354036e+01  2.4709427869137798e+01  2.0226779685037535e+01  2.0454530229972452e+01  2.1550104610301585e+01  2.8294711363601483e+01  2.0951343066473967e+01  3.0869163934611745e+01  2.0706014125229068e+01  2.0085970477420254e+01  2.5316672685710493e+01  2.1981200352373513e+01  2.8329827131231632e+01  2.0350145324299241e+01  2.4844613063779128e+01  2.0171314759060198e+01  2.3218501343140598e+01  3.6551608204917045e+01  2.0035327154573974e+01  2.4299096187463707e+01  2.0848915527372782e+01  2.0160308740708746e+01  2.0521994327874594e+01  2.5195816924883019e+01  2.1815963791543741e+01  2.0303272157690159e+01  2.1010388018020766e+01  3.4243551732193765e+01  2.5498099851336622e+01  2.5080512967315261e+01  2.4682764983830637e+01  2.0685617072563538e+01  2.2886736089272485e+01  2.3349037906206348e+01  2.5254626458206069e+01  2.0261807960721981e+01  2.4936258495136109e+01  2.0706503227535148e+01  2.4148452938249473e+01  3.0336624546520351e+01  2.5703280039361971e+01  2.0315201288545698e+01  3.0609290101845943e+01  2.1582301019469583e+01  2.0287481854965534e+01  2.0407644741730799e+01  2.0396934233185611e+01  2.1107337670356479e+01  2.1100566625162752e+01  2.0100118194459899e+01  2.4494935696835508e+01  3.1770445234567593e+01  2.3672169734189090e+01  2.1297588004436552e+01  2.0610691438589978e+01  2.5613641255195592e+01  2.4725788653822633e+01  2.0075338133804333e+01  2.9745515902524286e+01  2.4673634089466500e+01  2.4756612284422452e+01  2.0957914358806381e+01  2.5005713335890466e+01  2.4231520287086138e+01  3.2619543510024336e+01  2.0284270549906502e+01  2.4404746531322324e+01  2.5059320234056479e+01  2.0274764296444168e+01  2.0230839425761385e+01  2.0236699921569290e+01  2.0093523263867358e+01  3.5184645079102332e+01  2.2535446194113057e+01  3.0013655945118934e+01  2.1068900675358847e+01  2.4465849330434100e+01  2.3540260534667063e+01  2.2316210490505377e+01  2.5485606878527605e+01  2.8945614598583546e+01  3.0640426233425544e+01  2.0429238818028669e+01  2.3829162995481077e+01  2.0212671361072353e+01  2.0240259551636697e+01  2.5456232374581322e+01  2.2038183205207329e+01  3.3514235965723017e+01  2.0354656161264955e+01  3.2904885823902831e+01  3.3408580826528357e+01  2.0110881482001730e+01  2.0093905260693198e+01  3.4482808052362515e+01  3.4588682635979822e+01  2.7339476765053433e+01  2.1963886545766766e+01  2.0858573572233993e+01  2.0772586305754402e+01  2.2032120359660556e+01  2.1630301742307612e+01  2.0996247430892126e+01  2.0068327717669025e+01  2.1076943308096023e+01  2.2481881084398186e+01  2.8940629528461212e+01  2.8135826377391346e+01  2.0697893088602900e+01  2.0710850896850499e+01  2.0986840677999556e+01  2.1903428689421954e+01  2.0525558218481365e+01  2.8651276158211409e+01  2.5352821621103384e+01  2.4577466349457161e+01  2.5922772149539814e+01  2.5649463975156756e+01  2.9778588876569497e+01  2.0054323513140002e+01  3.5871793489528073e+01  3.5709726903913335e+01  3.5718660394542070e+01  2.0065213071911039e+01  2.0052785345171063e+01  2.0239629636663178e+01  2.4461942687182674e+01  2.0323203640237093e+01  2.6372067079218812e+01  2.0461594947395444e+01  2.0226478636680149e+01  2.0207542715639544e+01  2.4226583150466496e+01  2.3978458604340229e+01  2.4113982069993614e+01  2.0959558510852553e+01  3.5995394135251452e+01  2.3846304382127428e+01  2.0196173560074882e+01  2.0127957721884844e+01  2.3996725355999505e+01  2.1328007323529242e+01  2.3457567119880778e+01  2.9537147853139690e+01  2.5410939352160636e+01  2.0237501505794860e+01  2.5252426186111627e+01  2.0627511648425450e+01  2.0359246655392550e+01  2.0380824919228878e+01  2.0277342544778662e+01  3.1531094842528674e+01  2.1316619253797203e+01  3.4464719729821169e+01  2.0305078190521861e+01  2.4512770028612369e+01  2.0343522839950424e+01  2.6009052756940648e+01  2.4010931523778918e+01  2.0057957301126262e+01  2.1530114068322003e+01  3.4287793252993609e+01  2.0443381845457569e+01  2.0167347716486066e+01  2.0798522584746202e+01  2.8247610301900849e+01  2.3862430877131896e+01  2.0641259714063231e+01  2.1589610274910136e+01  2.1163188261609164e+01  2.0973629079526457e+01  3.1766105918569025e+01  2.7621139968241025e+01  2.3307088342120579e+01  2.1122112492995395e+01  2.0510596345325013e+01  2.0859911929391846e+01  2.1165526272089789e+01  2.1202894014890020e+01  2.4560297722399870e+01  2.5465532175184020e+01  2.3620819093922560e+01  2.0241926139787257e+01  2.5214277633118201e+01  2.0342899322216724e+01  2.9778323433749936e+01  2.5026740725490797e+01  2.5119032200666105e+01  2.5021864297348259e+01  2.5549824117864070e+01  2.0631242545029771e+01  2.2374802646442241e+01  2.0584020500340838e+01  2.0589111335557497e+01  2.0516735586876493e+01  2.1453705117075057e+01  2.0104085923999683e+01  2.0274495179462473e+01  2.1787801385254586e+01  3.4481788111336179e+01  3.4955223936140840e+01  3.2783515506833126e+01  2.1545536941858504e+01  2.4003235180160384e+01  2.3674155967634267e+01  2.0676764553319174e+01  2.0883616810297749e+01  3.2069729451351613e+01  2.7892905808868644e+01  2.0114759273630721e+01  2.5399617785301363e+01  2.6053899175118602e+01  2.0499943821424523e+01  3.1424884454727088e+01  2.0809523137732523e+01  2.6393162302030145e+01  2.0716693545769377e+01  2.6643028287964320e+01  2.2149936218290826e+01  2.2309401667460406e+01  2.0999165024038785e+01  2.8849096438427658e+01  2.1163762268315917e+01  2.0622403519727541e+01  2.1028143271978347e+01  2.0936728288944867e+01  2.8485709934981070e+01  2.1234090945812579e+01  2.1633084905137547e+01  2.7142695646487805e+01  2.1808456795654678e+01  2.0628487806836684e+01  2.6012872273514969e+01  2.0051313873719273e+01  3.5940658795002669e+01  2.559