<?xml version="1.0"?>
<VTKFile type="UnstructuredGrid"  version="0.1"  >
<UnstructuredGrid>
<Piece  NumberOfPoints="2331" NumberOfCells="4248">
<Points>
<DataArray  type="Float64"  NumberOfComponents="3"  format="ascii">0 0.3 0  0 0 0  0.04999999999999999 0 0  0.0514582251803892 0.02410733605106462 0  0.0558116365147896 0.04786313285751154 0  0.06299675146291706 0.07092097740850717 0  0.07290879486935808 0.09294463440875382 0  0.08540322682126872 0.1136129493462312 0  0.1002978503657798 0.132624531648159 0  0.117375468351841 0.1497021496342203 0  0.1363870506537689 0.1645967731787313 0  0.1570553655912463 0.177091205130642 0  0.1790790225914929 0.187003248537083 0  0.2021368671424885 0.1941883634852104 0  0.2258926639489354 0.1985417748196108 0  0.25 0.2 0  0.2741073360510646 0.1985417748196108 0  0.2978631328575116 0.1941883634852104 0  0.3209209774085071 0.187003248537083 0  0.3429446344087537 0.177091205130642 0  0.3636129493462312 0.1645967731787313 0  0.3826245316481591 0.1497021496342202 0  0.3997021496342202 0.132624531648159 0  0.4145967731787313 0.1136129493462312 0  0.427091205130642 0.09294463440875371 0  0.4370032485370829 0.07092097740850713 0  0.4441883634852104 0.04786313285751155 0  0.4485417748196108 0.02410733605106461 0  0.45 0 0  0.55 0 0  0.5514582251803892 0.02410733605106462 0  0.5558116365147896 0.04786313285751154 0  0.5629967514629171 0.07092097740850717 0  0.5729087948693581 0.09294463440875382 0  0.5854032268212688 0.1136129493462312 0  0.6002978503657798 0.132624531648159 0  0.617375468351841 0.1497021496342203 0  0.6363870506537689 0.1645967731787313 0  0.6570553655912463 0.177091205130642 0  0.6790790225914929 0.187003248537083 0  0.7021368671424885 0.1941883634852104 0  0.7258926639489354 0.1985417748196108 0  0.75 0.2 0  0.7741073360510646 0.1985417748196108 0  0.7978631328575116 0.1941883634852104 0  0.8209209774085071 0.187003248537083 0  0.8429446344087537 0.177091205130642 0  0.8636129493462312 0.1645967731787313 0  0.8826245316481591 0.1497021496342202 0  0.8997021496342202 0.132624531648159 0  0.9145967731787312 0.1136129493462312 0  0.927091205130642 0.09294463440875371 0  0.9370032485370829 0.07092097740850713 0  0.9441883634852104 0.04786313285751155 0  0.9485417748196108 0.02410733605106461 0  0.95 0 0  1 0 0  1 0.3 0  0.9758926639489353 0.3014582251803892 0  0.9521368671424885 0.3058116365147896 0  0.9290790225914928 0.3129967514629171 0  0.9070553655912461 0.3229087948693581 0  0.8863870506537688 0.3354032268212687 0  0.867375468351841 0.3502978503657798 0  0.8502978503657798 0.367375468351841 0  0.8354032268212687 0.3863870506537689 0  0.822908794869358 0.4070553655912464 0  0.8129967514629171 0.4290790225914929 0  0.8058116365147896 0.4521368671424885 0  0.8014582251803892 0.4758926639489354 0  0.8 0.4999999999999999 0  0.8014582251803892 0.5241073360510646 0  0.8058116365147896 0.5478631328575115 0  0.8129967514629171 0.5709209774085071 0  0.8229087948693581 0.5929446344087538 0  0.8354032268212688 0.6136129493462312 0  0.8502978503657798 0.632624531648159 0  0.867375468351841 0.6497021496342202 0  0.8863870506537689 0.6645967731787313 0  0.9070553655912463 0.677091205130642 0  0.9290790225914929 0.6870032485370829 0  0.9521368671424885 0.6941883634852104 0  0.9758926639489354 0.6985417748196108 0  1 0.7 0  1 1 0  0.95 1 0  0.9485417748196108 0.9758926639489353 0  0.9441883634852104 0.9521368671424885 0  0.9370032485370829 0.9290790225914928 0  0.927091205130642 0.9070553655912463 0  0.9145967731787312 0.8863870506537688 0  0.8997021496342201 0.8673754683518409 0  0.882624531648159 0.8502978503657798 0  0.863612949346231 0.8354032268212686 0  0.8429446344087537 0.822908794869358 0  0.8209209774085071 0.8129967514629171 0  0.7978631328575114 0.8058116365147896 0  0.7741073360510646 0.8014582251803892 0  0.75 0.8 0  0.7258926639489353 0.8014582251803892 0  0.7021368671424885 0.8058116365147896 0  0.6790790225914928 0.8129967514629171 0  0.6570553655912461 0.8229087948693581 0  0.6363870506537688 0.8354032268212688 0  0.617375468351841 0.8502978503657798 0  0.6002978503657798 0.867375468351841 0  0.5854032268212687 0.8863870506537689 0  0.572908794869358 0.9070553655912463 0  0.5629967514629171 0.9290790225914929 0  0.5558116365147896 0.9521368671424885 0  0.5514582251803892 0.9758926639489355 0  0.55 0.9999999999999999 0  0.45 0.9999999999999999 0  0.4485417748196108 0.9758926639489353 0  0.4441883634852104 0.9521368671424885 0  0.4370032485370829 0.9290790225914928 0  0.427091205130642 0.9070553655912463 0  0.4145967731787313 0.8863870506537688 0  0.3997021496342201 0.8673754683518409 0  0.382624531648159 0.8502978503657798 0  0.363612949346231 0.8354032268212686 0  0.3429446344087536 0.822908794869358 0  0.3209209774085071 0.8129967514629171 0  0.2978631328575115 0.8058116365147896 0  0.2741073360510646 0.8014582251803892 0  0.25 0.8 0  0.2258926639489353 0.8014582251803892 0  0.2021368671424885 0.8058116365147896 0  0.1790790225914928 0.8129967514629171 0  0.1570553655912462 0.8229087948693581 0  0.1363870506537688 0.8354032268212688 0  0.117375468351841 0.8502978503657798 0  0.1002978503657797 0.867375468351841 0  0.08540322682126869 0.8863870506537689 0  0.07290879486935797 0.9070553655912463 0  0.06299675146291703 0.9290790225914929 0  0.05581163651478957 0.9521368671424885 0  0.0514582251803892 0.9758926639489355 0  0.04999999999999999 0.9999999999999999 0  0 1 0  -0 0.7000000000000001 0  0.0241073360510646 0.6985417748196108 0  0.04786313285751161 0.6941883634852104 0  0.07092097740850711 0.6870032485370829 0  0.09294463440875372 0.677091205130642 0  0.1136129493462312 0.6645967731787312 0  0.1326245316481591 0.6497021496342202 0  0.1497021496342202 0.632624531648159 0  0.1645967731787313 0.6136129493462312 0  0.177091205130642 0.5929446344087537 0  0.187003248537083 0.5709209774085071 0  0.1941883634852104 0.5478631328575115 0  0.1985417748196108 0.5241073360510646 0  0.2 0.5 0  0.1985417748196108 0.4758926639489353 0  0.1941883634852104 0.4521368671424885 0  0.1870032485370829 0.4290790225914928 0  0.177091205130642 0.4070553655912463 0  0.1645967731787313 0.3863870506537688 0  0.1497021496342202 0.3673754683518409 0  0.132624531648159 0.3502978503657798 0  0.113612949346231 0.3354032268212686 0  0.09294463440875361 0.322908794869358 0  0.07092097740850711 0.3129967514629171 0  0.04786313285751148 0.3058116365147896 0  0.02410733605106464 0.3014582251803892 0  0.6985417748196108 0.5241073360510646 0  0.7 0.5 0  0.6985417748196108 0.4758926639489353 0  0.6941883634852104 0.4521368671424885 0  0.6870032485370829 0.4290790225914928 0  0.677091205130642 0.4070553655912463 0  0.6645967731787312 0.3863870506537688 0  0.6497021496342201 0.3673754683518409 0  0.632624531648159 0.3502978503657798 0  0.613612949346231 0.3354032268212686 0  0.5929446344087537 0.322908794869358 0  0.5709209774085071 0.3129967514629171 0  0.5478631328575114 0.3058116365147896 0  0.5241073360510646 0.3014582251803892 0  0.4999999999999999 0.3 0  0.4758926639489353 0.3014582251803892 0  0.4521368671424885 0.3058116365147896 0  0.4290790225914928 0.3129967514629171 0  0.4070553655912462 0.3229087948693581 0  0.3863870506537688 0.3354032268212687 0  0.367375468351841 0.3502978503657798 0  0.3502978503657798 0.367375468351841 0  0.3354032268212687 0.3863870506537689 0  0.322908794869358 0.4070553655912464 0  0.3129967514629171 0.4290790225914929 0  0.3058116365147896 0.4521368671424885 0  0.3014582251803892 0.4758926639489354 0  0.3 0.4999999999999999 0  0.3014582251803892 0.5241073360510646 0  0.3058116365147896 0.5478631328575115 0  0.3129967514629171 0.5709209774085071 0  0.3229087948693581 0.5929446344087538 0  0.3354032268212687 0.6136129493462312 0  0.3502978503657798 0.632624531648159 0  0.367375468351841 0.6497021496342202 0  0.3863870506537689 0.6645967731787313 0  0.4070553655912463 0.677091205130642 0  0.4290790225914929 0.6870032485370829 0  0.4521368671424885 0.6941883634852104 0  0.4758926639489354 0.6985417748196108 0  0.4999999999999999 0.7 0  0.5241073360510646 0.6985417748196108 0  0.5478631328575116 0.6941883634852104 0  0.5709209774085071 0.6870032485370829 0  0.5929446344087537 0.677091205130642 0  0.6136129493462312 0.6645967731787312 0  0.6326245316481591 0.6497021496342202 0  0.6497021496342202 0.632624531648159 0  0.6645967731787312 0.6136129493462312 0  0.677091205130642 0.5929446344087537 0  0.6870032485370829 0.5709209774085071 0  0.6941883634852104 0.5478631328575115 0  0 0.15 0  1 0.15 0  1 0.85 0  0 0.8500000000000001 0  0 0.075 0  1 0.075 0  1 0.925 0  0 0.925 0  0.5 0.8127595604293815 0  0.5069440078039168 0.190422209288238 0  0.25 0.3127595604293815 0  0.756944007803917 0.3095777907117619 0  0.756944007803917 0.6904222092882382 0  0.25 0.6872404395706185 0  0 0.225 0  0.4255768646051012 0.2241073097134061 0  1 0.7749999999999999 0  0.6773391559270888 0.2766774022734219 0  1 0.225 0  0.6755768646051011 0.7241073097134062 0  0 0.7750000000000001 0  0.5818971135297744 0.2287925518358889 0  0.8318971135297746 0.728792551835889 0  0.1659156081861886 0.7301636995921477 0  0.08376842746533225 0.2299656297760495 0  0.4236002201977974 0.7746535834185855 0  0.0840843918138115 0.7698363004078523 0  0.3340843918138113 0.7301636995921477 0  0.3340843918138114 0.2698363004078523 0  0.9159156081861887 0.2301636995921477 0  0.5840843918138116 0.7698363004078522 0  0.1659156081861887 0.2698363004078523 0  0.9162315725346678 0.7700343702239506 0  0.8340843918138114 0.2698363004078523 0  0.75 0.6146645247768686 0  0.5 0.1125158665330878 0  0.75 0.3874841334669124 0  0.2504983345544904 0.6122915843562002 0  0.2504983345544902 0.3877084156437999 0  0.5 0.8879783056303169 0  0.7005361650220154 0.3333055947145943 0  0.70416808765371 0.6599554817221275 0  0.449930214263529 0.1678187287522426 0  0.2247310981387008 0.7415600637745463 0  0.5155081196221678 0.7563797802146907 0  0.2752689018612993 0.2584399362254537 0  0.05605196690611226 0.8246131191226815 0  0.9439480330938878 0.1
[...]
<PointData  Scalars="Temperature"> 
<DataArray  type="Float64"  Name="Temperature"  format="ascii">3.8012182523386878e+31  -2.0850799452152884e+27  -6.2082864673775676e+27  9.9115978511775212e+27  -4.3095105191258679e+28  3.4015338620786074e+29  -9.9056708671097379e+29  8.6185252847960563e+30  1.1752399645555116e+32  -9.6826090249890581e+31  -1.4354461712103082e+34  -1.7426108958856602e+35  -1.3553234531614436e+36  -8.8967424845223788e+36  4.5374586439318455e+37  1.9012254030171697e+38  -1.7679937311888130e+38  3.2778872837698324e+39  -4.7396157069818476e+39  -1.0971075764980840e+40  2.3705006756127080e+41  6.4831032144052632e+41  3.8662688684190480e+41  1.1929932316998288e+42  -6.5007385604436247e+41  -1.5810499181153273e+41  -7.7659411150049891e+40  1.9864917853704021e+40  -1.5962337169778940e+40  -3.8924432078301119e+41  7.1295571820910651e+41  -1.3007896224872206e+42  2.4611101342014545e+43  -1.4462233747247757e+44  -1.5952808703264571e+45  1.0746297115289796e+45  4.2495535425737916e+46  6.2641325143604362e+46  2.5849322379654888e+47  -6.6082774736042676e+47  9.7133516300195598e+48  -7.9556183032501970e+48  2.0322956048020078e+47  3.0645520224912673e+47  2.0656823639241401e+48  -6.5391886052289278e+46  -6.6624876093899013e+47  1.3814709243630021e+46  -3.8173789215149555e+46  1.7314667570064188e+45  -2.5181091282085625e+45  7.9961445695692625e+44  -4.4882585781602037e+43  -1.6991625846869111e+43  -1.5176150270180528e+42  4.0121260584340221e+41  -1.5371356737142198e+40  3.6571700147385314e+48  1.0682805732714092e+49  7.6525347143043673e+49  5.1147403251689202e+50  2.7708336218281430e+51  2.4331043665150607e+52  5.3774094231023215e+52  -2.6968660947872166e+52  4.9322046383779639e+54  -2.6147558238627655e+55  7.2560541550968507e+55  -1.4992855315272364e+57  6.0066503534295090e+57  5.2092900058913430e+58  -3.5496440629314873e+59  1.1460122716033156e+60  -7.7914418444357595e+60  6.6461389010419432e+61  -5.9767221828967618e+61  2.0330475899609301e+63  4.3757772343003787e+64  8.0816003807426065e+64  1.2904377417192059e+66  -1.9178393031994034e+65  -2.3319901627930662e+67  4.4974021335946780e+67  1.6260613063808747e+68  1.1122217698522782e+65  -5.8902916733701919e+65  8.5351745733069762e+65  8.1249165926162335e+65  1.3884765177248542e+67  -1.6150780352714927e+67  7.7807963007361933e+67  -4.7917047224460506e+67  3.7476005151040208e+65  6.0824273491322290e+66  1.9848887170134669e+66  -3.2669609391846637e+65  -3.0785594864189283e+64  -4.3292363498170317e+62  -2.7597937443863213e+62  -1.3737077961400981e+61  -6.6877699162463254e+59  4.9415849623144551e+59  -1.8799493790964476e+58  -8.4899677903409011e+57  2.5839749627579273e+57  -1.5190282447276217e+56  7.0832228499771934e+55  -5.7075144201360952e+54  2.4198636231449657e+54  7.1620122511908207e+52  -2.2376040068295659e+52  -1.3346547843874367e+52  -2.9445944039042286e+50  8.2313719941378582e+49  -1.3515190531348838e+51  1.7388068184721185e+51  2.2324198468250042e+51  8.9029113721939235e+50  -1.1193033465369780e+51  -7.9010756640333411e+50  6.5780555564173424e+49  2.1178465142685753e+49  -3.7964888862420589e+48  9.5474386646766927e+47  -1.5580379532896082e+47  -2.2569706667492032e+46  4.9998289241545622e+45  -8.0538008579889124e+44  -1.0249205747820025e+43  3.5314210482037374e+42  3.6497479859321173e+41  -6.1130351139755542e+38  3.8381625612523017e+39  -2.9756058544568387e+38  -1.8957356119897412e+37  -7.5260412759704141e+36  -2.0577715356182172e+36  -9.5747613281295058e+34  1.4741205329081687e+35  1.5170366668349902e+35  -9.4500042048188597e+37  1.3707411464137504e+38  1.6223487384648708e+39  -5.2956767162497466e+39  -7.4608009314693940e+40  -2.0684592504620148e+41  1.7300186518138132e+42  3.0834377922449790e+42  -1.5006408307331841e+42  7.1115367706270334e+42  1.1936868257429472e+42  -1.8894160114280719e+41  1.4064999302591140e+41  -5.0509486226336350e+40  -2.0539624951852345e+40  3.4905186663034984e+39  -8.6250443392201696e+38  2.4925124748992361e+38  -7.7284616973438838e+37  -8.8362957738986580e+36  4.3397766572086225e+35  -1.5582637883099651e+35  -5.5885269478859007e+34  9.0239033859258691e+32  -1.2556576735036340e+33  -1.6867977962090998e+32  -1.4714067266270387e+56  2.7178095045980384e+57  6.7852130472315603e+55  2.4848694432431855e+56  4.4329076077711280e+54  -2.1369757784397833e+54  3.3688130476627069e+53  -2.2025722634359569e+51  -7.8368697358238985e+51  -2.4708055663608173e+50  -1.0463196358989788e+50  -1.3835192487871282e+48  3.0330906325268865e+48  7.4088236327404952e+47  1.4451609092728866e+46  9.6184982703152583e+45  7.4278964506772518e+44  -5.8111653089271432e+44  -4.3156292323756521e+43  7.6819971786103703e+41  -4.7257867700239187e+41  -3.2073031919190951e+40  2.1782190447190354e+39  -7.6784600862279931e+38  -1.1907021289637302e+39  -1.8439186414305926e+40  1.2399103137581049e+41  -5.5847161965914222e+41  4.2448693829173298e+42  -5.5140031374174842e+42  -2.7783529084350839e+43  -3.0274431049738811e+45  8.0339215969687422e+44  3.5160038971079119e+47  -1.5421080794373285e+48  -5.6055249492931639e+48  1.4943944986726475e+50  5.8846097406534979e+50  2.6463125804607915e+51  2.9837163036319305e+51  1.9518148110206621e+53  3.0555300674170653e+53  2.8968270682113905e+55  -4.2561005619518679e+55  1.3521626972477471e+57  -1.3058226999627682e+57  -4.6759088733061094e+57  -7.4117785951383221e+57  -3.7416840080544552e+56  -2.6068534345421327e+58  4.1551415444550845e+58  3.3156522156070908e+57  -5.3184477985558994e+29  -3.7462768485358963e+45  -1.2441717196162520e+70  1.0064302673403623e+37  -1.5867186243502411e+27  1.1236518672546203e+43  -2.4026500218937212e+67  -2.0379130474771332e+36  -8.8949724575514865e+53  7.2665049071257123e+44  -1.3580460700303222e+37  -2.5059888953082620e+52  4.5209802247042478e+61  4.9205936984007861e+45  3.6038987746479010e+30  -3.7210614115385545e+43  -1.1956317275363736e+70  1.2842851991083959e+49  2.8530924300594304e+47  1.5136150099996210e+59  2.6501970550472996e+38  -2.9767740350391420e+47  4.4442105175769057e+64  1.8328041681840289e+42  6.9512114134842658e+32  -3.5523734558054111e+51  1.3762811135967097e+40  2.0959187386399454e+48  -2.2596567825151419e+41  7.1831443319202290e+48  1.3232602739258531e+57  1.0784091412457601e+36  8.2044500705791105e+67  4.0073041780175713e+49  -2.5382279295031481e+60  -1.4652067406726858e+43  -8.0506169982454260e+53  7.6615145108882533e+44  -1.3400069835611235e+38  -1.6455262593198254e+53  -6.0425772319254303e+51  2.8545028643367526e+59  1.9429429152363849e+43  3.8459903746389018e+42  1.8065932506595375e+54  -5.6573758547368112e+39  1.2574630850581500e+39  -8.0496131343806504e+45  8.8525712933514020e+30  1.3180484732301381e+69  -2.9080570871733871e+45  1.9100714487475266e+61  -1.1220623739319756e+50  -1.7508154383668827e+52  5.3554338433780756e+43  1.1721318425423673e+36  5.5817177884862763e+46  4.3264088754518272e+39  -3.3802969247819034e+54  2.4219406211647262e+41  -3.8869414257928298e+55  7.0944625146420342e+58  -2.1035497822945305e+39  5.2869109858396688e+42  2.5052074801197455e+50  3.1695840807137078e+52  -9.4578208251047266e+37  -1.6558112947100373e+46  -1.2327464346158778e+46  2.5909759815885489e+62  -5.0909785970452097e+52  -4.0822765427621163e+48  -2.1862905959575410e+43  -9.8824265211921245e+41  9.6615338577303403e+58  -2.4720439072467882e+57  -9.2918446615326007e+49  9.5752674011532099e+62  8.9929281000188488e+49  -7.3353901310976661e+57  -5.2225971757258257e+40  -5.4898075533066884e+41  7.5120900664260804e+49  1.0697639245733926e+50  -6.3839125609072113e+46  1.5069856551619776e+66  1.9795633932607734e+66  -4.1358791323435823e+53  -2.5409948141301075e+33  -1.4090486433050501e+38  -4.7170649624025516e+48  1.5044598492197621e+42  -1.3449218477839591e+35  2.1417770786210558e+41  8.5551766644339116e+47  -6.4914990278636941e+48  1.2091338339479341e+68  -6.5002254849241124e+31  -1.0147576325879791e+45  6.0923130861227695e+68  4.7773775576816776e+29  4.5006354314675333e+37  -3.0661560069003879e+54  4.6898308065454904e+63  -6.7290662744115795e+44  2.1420982027782669e+60  -4.0437929101675830e+57  4.3491911809228923e+48  -9.3814113805396538e+34  4.2397650598842627e+47  -3.6048149827763823e+41  -5.2191770531631039e+42  6.9628601533418262e+40  -1.3324695085705120e+33  1.3461083164442200e+67  1.6218654340937747e+44  -1.1135697866843878e+36  -4.1754857307584778e+54  4.8935455160413386e+64  1.6863076792352997e+38  3.6787771520900980e+45  -3.8363645078775145e+49  2.5627671058879344e+51  -1.6312422471812246e+50  -6.7924927046945029e+44  3.4823757132572396e+58  2.5997874172565186e+41  2.5298052478890094e+60  -9.0474679081895062e+51  1.2364010715044034e+52  -3.1736910437905565e+48  1.7973940523392472e+50  1.7249549777225803e+64  1.5165015294633802e+47  1.5730663900321146e+44  -5.7097800030536258e+40  6.6900622499713114e+47  -4.0081420343835576e+36  -7.9319455650854901e+51  9.5642621652348514e+55  -6.5009577882271674e+44  3.7681102077663062e+31  -1.3636072123263051e+49  -2.0366786877554696e+47  9.4785689095104696e+38  -6.0486413184131502e+54  1.0947546716321466e+38  -4.1566212156648733e+45  1.6814028063690501e+51  -1.9788192593366069e+68  3.4837919037008004e+42  1.0675317562115577e+53  7.0136915482723469e+53  6.9240199928576431e+43  1.9759520118949241e+30  -1.1223281569793888e+60  -1.2900739616895269e+59  -1.5020773869412891e+61  -4.1416722348372813e+42  1.0824785353197864e+38  4.5265553663902457e+45  2.4475212738689980e+38  8.5979936136239380e+39  -4.4135381737643565e+41  -3.6634357448440092e+42  2.0569816029711914e+55  1.7615831452946170e+54  -5.3016649457223351e+54  -2.2025395810623396e+53  -3.4028254933560807e+52  1.5002637577565672e+71  -5.7132470363913069e+37  1.0931272245381373e+69  -4.5180577382219740e+46  6.8093583178531693e+30  2.1193074329025357e+42  -1.0554368513629183e+28  -1.5435137538662819e+44  -1.0274026261587307e+44  -7.9999129155894205e+28  -1.4409360577682554e+66  -2.7149641227715133e+34  -1.9908055065796922e+68  1.5716113538684411e+37  -1.0631623607771945e+37  -5.0584762138613713e+38  1.9149947232160364e+44  7.7422565788485755e+44  -1.0434780443313990e+40  -1.4190988585101313e+53  2.2451390730597496e+67  2.8733268991318930e+46  9.9166942693660667e+36  4.8718806772571636e+62  1.6664130695871883e+60  7.5773803889686558e+52  2.0637613894761374e+69  8.4823128847294069e+55  -1.2007304235342772e+46  9.6645443499329522e+44  4.0986542960304495e+37  4.8784387568767399e+34  -1.2028953170554462e+49  -1.0029188160212785e+45  7.9575481350636584e+50  -3.1849536411131546e+53  1.2869042249698397e+55  8.7011658376134852e+58  3.0460889624009427e+58  -2.8831487787440910e+68  -1.4465531796951904e+29  -2.4122628450284208e+34  3.1031186357530858e+63  4.2541389291254770e+46  3.6960594803545511e+37  1.0561657516192308e+49  -1.9071898291856006e+46  -1.0481733927224683e+60  -1.9037499984608164e+49  1.6082005923877814e+53  -7.2622903746691141e+42  4.7437782460001241e+57  1.3899612258873731e+51  -1.1308536499895822e+28  -1.3712827588618811e+43  -1.0366563416854469e+67  2.3818602485862066e+36  -5.7901234792364465e+49  -7.6270377569821903e+58  -6.6513583478989097e+44  -2.4666437695941287e+38  3.0285622293585439e+38  -5.0140316251812077e+45  5.5765200332764892e+44  6.7276743918967897e+48  2.0824236557475930e+31  -1.0987039138810655e+32  1.2545544476694380e+30  2.9809462807792221e+42  -6.0423867399556042e+43  -1.1437627661522593e+33  -7.0382402552527532e+52  -6.3191790481753021e+40  5.7034485120444140e+41  -1.3354119923771447e+48  -1.6282236537147591e+50  3.1305595943498992e+49  -8.4298041859216306e+40  3.0269049903111534e+57  -6.3798027453489452e+69  -8.6455668840415930e+58  8.1974301593497406e+60  -4.7053904195965056e+46  3.9654181863241978e+52  -6.5310555122908978e+52  7.4574426394758631e+40  1.6656399148364254e+41  8.3372763804635097e+56  7.1988554794835681e+55  -2.9414600151444048e+40  -1.9794228583935722e+40  -2.6940752958497966e+50  4.0018488932997761e+65  1.5363898999175569e+51  -4.7253725851062505e+47  -2.8797271398962697e+40  2.7289704813348874e+49  2.0321865963672594e+36  -2.7132165301561069e+46  1.1543574096477333e+45  -4.9243181358618627e+43  -2.4155887538350404e+39  -7.0128364100065200e+38  3.9066159350777033e+45  -1.8723677753216487e+56  3.0469413345414119e+55  -1.0010566415532094e+39  -3.1314744320122245e+43  -5.6850317616667182e+39  -6.1461404719217935e+35  -1.5125697907417234e+47  1.7783699996149180e+43  -1.0508363338308698e+55  -1.3005838370058625e+58  4.9649009701990301e+58  -1.3400227315793189e+42  -5.8469944282639271e+41  -8.9067684258398446e+34  2.8843136689375381e+60  1.8500634850428488e+61  3.0785604825590216e+61  -1.8333501732630020e+44  6.5219593989055880e+59  -1.1260229640258705e+54  6.1071360123453136e+42  1.8843883426280751e+51  8.8512267225993539e+51  5.5998195327576922e+52  -9.8734824280958920e+45  -3.0841424460654805e+45  -4.0397871383746436e+49  2.9748814883744817e+49  9.0962635217486045e+68  2.8541920638296084e+34  1.1950925162844227e+53  -4.5434194786454852e+45  3.0897678407161262e+65  -3.0987491561560052e+65  3.3840643815605852e+51  9.7287310917016550e+50  -5.1134151524658494e+48  1.5001063039194170e+43  -6.5522386492177150e+41  -7.1719646883574685e+41  -2.5703147395367538e+58  4.4853376211403634e+57  -2.5031498231999215e+50  -1.3164093136798319e+47  -1.0819932109528925e+44  1.3258695015583924e+47  2.7607290269798701e+49  -4.2613014269679741e+59  3.3584314632539956e+47  1.2663176515584856e+40  -6.4265587118842197e+47  -3.0401267460304184e+65  -2.0951762238405421e+41  -1.2348637656594702e+27  5.3290713846840764e+34  5.9178896182170310e+44  8.5938471203995540e+48  9.5665671147607212e+40  -2.1519371207329777e+51  2.6015961060280809e+59  -1.0502963319269476e+51  8.8523712486766064e+41  -1.0328731055904972e+41  -1.2985123608655139e+39  1.5718854954416709e+49  1.6654939149783547e+65  9.2158868363062588e+65  1.1168977099566853e+67  1.7427197388927730e+65  -2.3036554521158168e+56  -4.5142197578604605e+40  2.5313290335825094e+43  1.6538046417014306e+51  1.1233613340643991e+51  7.8096002401842102e+51  1.0657980771488191e+57  1.3340756450892525e+60  2.0504908225403358e+42  1.4708817649242145e+43  9.8052710537065973e+34  -1.5007519929788724e+40  3.5342197325503637e+50  1.0373692525029670e+34  6.5598231316623078e+44  5.2304036401242985e+48  1.1780370768352960e+55  1.4207167830669168e+31  3.9336221062395490e+42  4.2409403450606096e+62  1.2783856687844404e+62  1.3619031373748603e+68  1.0148306160309868e+47  -1.0934158928698781e+37  7.1607416094633692e+46  1.4172710824124900e+43  2.3540967003334735e+42  3.2282748303126762e+41  -8.6391418808941913e+40  5.3338831070604245e+56  -1.4073526693680686e+30  -3.3743696933495937e+66  2.3698394788548289e+39  2.8380163171738899e+50  3.1732676739939832e+38  -2.8302940863064000e+46  4.2013147504146597e+61  8.8677020276510815e+51  -1.1643918725626267e+41  -1.4480952532496948e+56  1.1043346258960660e+35  4.2370152770080485e+52  2.6333509060200734e+69  2.9371000320369283e+40  3.4092171518336208e+49  -1.2920215917418931e+39  3.3195005883125650e+48  8.6202323389051361e+41  9.5251764876906958e+41  -2.2915826304358956e+35  -6.9572455690134633e+26  -1.5592591280062189e+66  1.7144620477833806e+45  5.5333087326180048e+53  2.5022251663778944e+66  -5.6463679083653678e+49  -1.4464270559889518e+41  -5.1375363634603318e+48  4.4153722047008687e+49  1.1225964097812137e+57  1.0328850170620153e+32  2.0903375253564281e+42  -1.2797855204866673e+40  2.2199124061457057e+46  1.6600664598667314e+50  -9.9591489446440519e+48  2.3338628609762418e+49  9.6481552309558220e+38  5.7973979284779515e+48  7.6953699353228373e+38  -1.5839680635698074e+55  9.2005180058983439e+45  -2.3708294177239566e+38  -2.0090073879617460e+44  2.8441721309458434e+63  -1.5693046623505927e+37  1.4421832407540029e+51  9.6668201099467406e+63  2.0795968363024096e+62  1.8423211300685272e+62  -2.1869582409081747e+51  -5.2869254214624767e+51  3.9556976124152397e+68  -4.9141353731336090e+43  -4.5235755380789594e+36  1.8300238101243667e+47  -2.2036619760131938e+53  -1.4086854166486603e+59  2.4955826210977809e+45  6.3149664020856359e+40  7.5481862355008393e+69  -2.3359247824670018e+39  -9.7453343404961412e+45  -6.8783287703969602e+40  -3.0884124631268012e+50  4.1897415918664429e+39  -1.2861872316580292e+43  3.4510392111393604e+35  3.9875567878465592e+46  9.0603035554242057e+39  -7.3347625701527931e+39  -2.9573095055765493e+48  -9.8906957252376444e+46  6.5170059864138906e+47  -1.2455022452497694e+68  1.0517111650701221e+31  1.1494301555138639e+47  7.9485201497879480e+37  -6.8547202982174718e+53  -3.0711276016873572e+46  -3.9961013496272627e+47  1.0416258534502920e+49  -2.3257596483301206e+45  -1.4296577751037498e+38  -9.2080249184708314e+38  1.9200616446693967e+51  5.6405115424099705e+37  -1.6348927615524750e+43  -5.9322701870947548e+64  1.2159371102502736e+44  4.7800392030124621e+51  6.6001740064612461e+33  2.5687445645284711e+50  1.1062964733182971e+36  8.2499656515667754e+34  -3.0076479514283635e+67  -6.6759255736980059e+67  -1.3975214091667983e+31  2.5202828612277267e+32  3.2679078214905772e+42  -1.3270947848387495e+51  4.6903038877627656e+55  2.0535453227065125e+54  -5.8389428166829792e+52  6.3798628475324458e+53  2.2303316908699718e+50  -4.5524212699165352e+70  1.0325722865111652e+55  -2.3589440097416521e+50  2.6816480585839479e+39  -9.1218563180609105e+40  -4.1862619763333163e+53  -8.4725182621159445e+56  -6.7363563985096315e+53  -2.6841331399551722e+51  -7.2251027838124593e+60  -1.1576319492609721e+39  1.3987562087451483e+42  1.0696834620140158e+39  1.8953811650211533e+43  7.5555034164047330e+44  -3.3331534134999742e+37  1.2154230103086597e+69  -2.3127161246707319e+29  -1.0211753316547057e+30  -5.9807125504270536e+30  1.5348947593517082e+68  -5.4023459971591454e+67  1.4866431901208076e+64  1.5991774910940420e+45  1.3623152674729177e+63  -1.4184087658391696e+43  -2.4342307157919108e+61  -3.3905283638469924e+45  4.0872453089497301e+44  2.3573305128702390e+38  -7.0339613317593764e+36  3.0125396778513634e+37  2.2032271643120525e+53  1.5406671991690841e+30  -2.9703147940382545e+37  -5.9411223179690267e+43  5.0841892447229239e+67  -1.4342591444191455e+45  8.5331582703486785e+50  -1.6142410249488201e+48  1.6537417387135872e+37  2.8514220497895786e+45  -3.5170257656355198e+47  6.1177442953568279e+37  -1.0101156418638763e+58  9.0902837050122151e+62  3.0007313257645844e+62  2.2007339192701265e+64  -5.2499233203602102e+37  -3.6592043120796995e+53  -1.5589179938101615e+33  8.8174516593436697e+63  -8.3034794498643347e+40  -1.3313261234246827e+47  9.4700747903380620e+43  3.4076622509316511e+45  7.0737375195523715e+69  5.2119026803315133e+52  -9.2118623155536558e+31  1.8441947090578564e+62  2.1356285666378226e+41  -3.3850382747089220e+58  -3.1653759504742148e+41  9.8820342781660939e+46  1.7352875195825920e+58  -4.6626009029835188e+53  1.1284231124249559e+56  3.4434212169434044e+54  -7.5576474772704121e+35  -1.4787225571925207e+41  1.6005600972854306e+48  6.3620546283054350e+53  2.0151912684985712e+52  2.3422429346412010e+52  -2.4811131860532776e+52  1.0320966334712035e+54  -1.0516528179422323e+43  -6.0320660593522774e+41  -5.4472471692819064e+48  -1.9722250832730948e+48  -1.2088902152388685e+38  2.1328255225139487e+49  -1.7226972474334320e+38  -2.1751448575048764e+45  -7.8535100076873924e+42  -2.7601766315624480e+43  -2.2387816730954389e+43  -5.5537418021750518e+46  7.4423265610802020e+50  3.8948940675638798e+59  -1.0567038404110431e+59  5.9787908830449426e+60  1.5969765031591107e+52  5.6758904706913597e+67  -4.0277651628790583e+46  -6.7837514834796895e+50  -3.0821793699514750e+33  -1.0873569551668252e+32  1.0055787823330055e+35  8.0717182959648369e+48  -1.1335879705438208e+48  1.2584006561000438e+48  -3.0542952882057857e+54  1.2646980548736622e+57  -7.5176987107284186e+35  4.1432258447735326e+41  -1.6171649046448853e+67  -3.1138665042772937e+45  1.9539502240552814e+44  -8.3031046978281284e+49  -1.4019401386181715e+37  3.6286816055207583e+57  5.2079308495352558e+42  -6.5320157116544187e+58  -4.6463652390380350e+41  -8.0550109012235605e+50 