<?xml version="1.0"?>
<VTKFile type="UnstructuredGrid"  version="0.1"  >
<UnstructuredGrid>
<Piece  NumberOfPoints="2331" NumberOfCells="4248">
<Points>
<DataArray  type="Float64"  NumberOfComponents="3"  format="ascii">0 0.3 0  0 0 0  0.04999999999999999 0 0  0.0514582251803892 0.02410733605106462 0  0.0558116365147896 0.04786313285751154 0  0.06299675146291706 0.07092097740850717 0  0.07290879486935808 0.09294463440875382 0  0.08540322682126872 0.1136129493462312 0  0.1002978503657798 0.132624531648159 0  0.117375468351841 0.1497021496342203 0  0.1363870506537689 0.1645967731787313 0  0.1570553655912463 0.177091205130642 0  0.1790790225914929 0.187003248537083 0  0.2021368671424885 0.1941883634852104 0  0.2258926639489354 0.1985417748196108 0  0.25 0.2 0  0.2741073360510646 0.1985417748196108 0  0.2978631328575116 0.1941883634852104 0  0.3209209774085071 0.187003248537083 0  0.3429446344087537 0.177091205130642 0  0.3636129493462312 0.1645967731787313 0  0.3826245316481591 0.1497021496342202 0  0.3997021496342202 0.132624531648159 0  0.4145967731787313 0.1136129493462312 0  0.427091205130642 0.09294463440875371 0  0.4370032485370829 0.07092097740850713 0  0.4441883634852104 0.04786313285751155 0  0.4485417748196108 0.02410733605106461 0  0.45 0 0  0.55 0 0  0.5514582251803892 0.02410733605106462 0  0.5558116365147896 0.04786313285751154 0  0.5629967514629171 0.07092097740850717 0  0.5729087948693581 0.09294463440875382 0  0.5854032268212688 0.1136129493462312 0  0.6002978503657798 0.132624531648159 0  0.617375468351841 0.1497021496342203 0  0.6363870506537689 0.1645967731787313 0  0.6570553655912463 0.177091205130642 0  0.6790790225914929 0.187003248537083 0  0.7021368671424885 0.1941883634852104 0  0.7258926639489354 0.1985417748196108 0  0.75 0.2 0  0.7741073360510646 0.1985417748196108 0  0.7978631328575116 0.1941883634852104 0  0.8209209774085071 0.187003248537083 0  0.8429446344087537 0.177091205130642 0  0.8636129493462312 0.1645967731787313 0  0.8826245316481591 0.1497021496342202 0  0.8997021496342202 0.132624531648159 0  0.9145967731787312 0.1136129493462312 0  0.927091205130642 0.09294463440875371 0  0.9370032485370829 0.07092097740850713 0  0.9441883634852104 0.04786313285751155 0  0.9485417748196108 0.02410733605106461 0  0.95 0 0  1 0 0  1 0.3 0  0.9758926639489353 0.3014582251803892 0  0.9521368671424885 0.3058116365147896 0  0.9290790225914928 0.3129967514629171 0  0.9070553655912461 0.3229087948693581 0  0.8863870506537688 0.3354032268212687 0  0.867375468351841 0.3502978503657798 0  0.8502978503657798 0.367375468351841 0  0.8354032268212687 0.3863870506537689 0  0.822908794869358 0.4070553655912464 0  0.8129967514629171 0.4290790225914929 0  0.8058116365147896 0.4521368671424885 0  0.8014582251803892 0.4758926639489354 0  0.8 0.4999999999999999 0  0.8014582251803892 0.5241073360510646 0  0.8058116365147896 0.5478631328575115 0  0.8129967514629171 0.5709209774085071 0  0.8229087948693581 0.5929446344087538 0  0.8354032268212688 0.6136129493462312 0  0.8502978503657798 0.632624531648159 0  0.867375468351841 0.6497021496342202 0  0.8863870506537689 0.6645967731787313 0  0.9070553655912463 0.677091205130642 0  0.9290790225914929 0.6870032485370829 0  0.9521368671424885 0.6941883634852104 0  0.9758926639489354 0.6985417748196108 0  1 0.7 0  1 1 0  0.95 1 0  0.9485417748196108 0.9758926639489353 0  0.9441883634852104 0.9521368671424885 0  0.9370032485370829 0.9290790225914928 0  0.927091205130642 0.9070553655912463 0  0.9145967731787312 0.8863870506537688 0  0.8997021496342201 0.8673754683518409 0  0.882624531648159 0.8502978503657798 0  0.863612949346231 0.8354032268212686 0  0.8429446344087537 0.822908794869358 0  0.8209209774085071 0.8129967514629171 0  0.7978631328575114 0.8058116365147896 0  0.7741073360510646 0.8014582251803892 0  0.75 0.8 0  0.7258926639489353 0.8014582251803892 0  0.7021368671424885 0.8058116365147896 0  0.6790790225914928 0.8129967514629171 0  0.6570553655912461 0.8229087948693581 0  0.6363870506537688 0.8354032268212688 0  0.617375468351841 0.8502978503657798 0  0.6002978503657798 0.867375468351841 0  0.5854032268212687 0.8863870506537689 0  0.572908794869358 0.9070553655912463 0  0.5629967514629171 0.9290790225914929 0  0.5558116365147896 0.9521368671424885 0  0.5514582251803892 0.9758926639489355 0  0.55 0.9999999999999999 0  0.45 0.9999999999999999 0  0.4485417748196108 0.9758926639489353 0  0.4441883634852104 0.9521368671424885 0  0.4370032485370829 0.9290790225914928 0  0.427091205130642 0.9070553655912463 0  0.4145967731787313 0.8863870506537688 0  0.3997021496342201 0.8673754683518409 0  0.382624531648159 0.8502978503657798 0  0.363612949346231 0.8354032268212686 0  0.3429446344087536 0.822908794869358 0  0.3209209774085071 0.8129967514629171 0  0.2978631328575115 0.8058116365147896 0  0.2741073360510646 0.8014582251803892 0  0.25 0.8 0  0.2258926639489353 0.8014582251803892 0  0.2021368671424885 0.8058116365147896 0  0.1790790225914928 0.8129967514629171 0  0.1570553655912462 0.8229087948693581 0  0.1363870506537688 0.8354032268212688 0  0.117375468351841 0.8502978503657798 0  0.1002978503657797 0.867375468351841 0  0.08540322682126869 0.8863870506537689 0  0.07290879486935797 0.9070553655912463 0  0.06299675146291703 0.9290790225914929 0  0.05581163651478957 0.9521368671424885 0  0.0514582251803892 0.9758926639489355 0  0.04999999999999999 0.9999999999999999 0  0 1 0  -0 0.7000000000000001 0  0.0241073360510646 0.6985417748196108 0  0.04786313285751161 0.6941883634852104 0  0.07092097740850711 0.6870032485370829 0  0.09294463440875372 0.677091205130642 0  0.1136129493462312 0.6645967731787312 0  0.1326245316481591 0.6497021496342202 0  0.1497021496342202 0.632624531648159 0  0.1645967731787313 0.6136129493462312 0  0.177091205130642 0.5929446344087537 0  0.187003248537083 0.5709209774085071 0  0.1941883634852104 0.5478631328575115 0  0.1985417748196108 0.5241073360510646 0  0.2 0.5 0  0.1985417748196108 0.4758926639489353 0  0.1941883634852104 0.4521368671424885 0  0.1870032485370829 0.4290790225914928 0  0.177091205130642 0.4070553655912463 0  0.1645967731787313 0.3863870506537688 0  0.1497021496342202 0.3673754683518409 0  0.132624531648159 0.3502978503657798 0  0.113612949346231 0.3354032268212686 0  0.09294463440875361 0.322908794869358 0  0.07092097740850711 0.3129967514629171 0  0.04786313285751148 0.3058116365147896 0  0.02410733605106464 0.3014582251803892 0  0.6985417748196108 0.5241073360510646 0  0.7 0.5 0  0.6985417748196108 0.4758926639489353 0  0.6941883634852104 0.4521368671424885 0  0.6870032485370829 0.4290790225914928 0  0.677091205130642 0.4070553655912463 0  0.6645967731787312 0.3863870506537688 0  0.6497021496342201 0.3673754683518409 0  0.632624531648159 0.3502978503657798 0  0.613612949346231 0.3354032268212686 0  0.5929446344087537 0.322908794869358 0  0.5709209774085071 0.3129967514629171 0  0.5478631328575114 0.3058116365147896 0  0.5241073360510646 0.3014582251803892 0  0.4999999999999999 0.3 0  0.4758926639489353 0.3014582251803892 0  0.4521368671424885 0.3058116365147896 0  0.4290790225914928 0.3129967514629171 0  0.4070553655912462 0.3229087948693581 0  0.3863870506537688 0.3354032268212687 0  0.367375468351841 0.3502978503657798 0  0.3502978503657798 0.367375468351841 0  0.3354032268212687 0.3863870506537689 0  0.322908794869358 0.4070553655912464 0  0.3129967514629171 0.4290790225914929 0  0.3058116365147896 0.4521368671424885 0  0.3014582251803892 0.4758926639489354 0  0.3 0.4999999999999999 0  0.3014582251803892 0.5241073360510646 0  0.3058116365147896 0.5478631328575115 0  0.3129967514629171 0.5709209774085071 0  0.3229087948693581 0.5929446344087538 0  0.3354032268212687 0.6136129493462312 0  0.3502978503657798 0.632624531648159 0  0.367375468351841 0.6497021496342202 0  0.3863870506537689 0.6645967731787313 0  0.4070553655912463 0.677091205130642 0  0.4290790225914929 0.6870032485370829 0  0.4521368671424885 0.6941883634852104 0  0.4758926639489354 0.6985417748196108 0  0.4999999999999999 0.7 0  0.5241073360510646 0.6985417748196108 0  0.5478631328575116 0.6941883634852104 0  0.5709209774085071 0.6870032485370829 0  0.5929446344087537 0.677091205130642 0  0.6136129493462312 0.6645967731787312 0  0.6326245316481591 0.6497021496342202 0  0.6497021496342202 0.632624531648159 0  0.6645967731787312 0.6136129493462312 0  0.677091205130642 0.5929446344087537 0  0.6870032485370829 0.5709209774085071 0  0.6941883634852104 0.5478631328575115 0  0 0.15 0  1 0.15 0  1 0.85 0  0 0.8500000000000001 0  0 0.075 0  1 0.075 0  1 0.925 0  0 0.925 0  0.5 0.8127595604293815 0  0.5069440078039168 0.190422209288238 0  0.25 0.3127595604293815 0  0.756944007803917 0.3095777907117619 0  0.756944007803917 0.6904222092882382 0  0.25 0.6872404395706185 0  0 0.225 0  0.4255768646051012 0.2241073097134061 0  1 0.7749999999999999 0  0.6773391559270888 0.2766774022734219 0  1 0.225 0  0.6755768646051011 0.7241073097134062 0  0 0.7750000000000001 0  0.5818971135297744 0.2287925518358889 0  0.8318971135297746 0.728792551835889 0  0.1659156081861886 0.7301636995921477 0  0.08376842746533225 0.2299656297760495 0  0.4236002201977974 0.7746535834185855 0  0.0840843918138115 0.7698363004078523 0  0.3340843918138113 0.7301636995921477 0  0.3340843918138114 0.2698363004078523 0  0.9159156081861887 0.2301636995921477 0  0.5840843918138116 0.7698363004078522 0  0.1659156081861887 0.2698363004078523 0  0.9162315725346678 0.7700343702239506 0  0.8340843918138114 0.2698363004078523 0  0.75 0.6146645247768686 0  0.5 0.1125158665330878 0  0.75 0.3874841334669124 0  0.2504983345544904 0.6122915843562002 0  0.2504983345544902 0.3877084156437999 0  0.5 0.8879783056303169 0  0.7005361650220154 0.3333055947145943 0  0.70416808765371 0.6599554817221275 0  0.449930214263529 0.1678187287522426 0  0.2247310981387008 0.7415600637745463 0  0.5155081196221678 0.7563797802146907 0  0.2752689018612993 0.2584399362254537 0  0.05605196690611226 0.8246131191226815 0  0.9439480330938878 0.1
[...]
<PointData  Scalars="Temperature"> 
<DataArray  type="Float64"  Name="Temperature"  format="ascii">-1.9743231837371480e+28  1.0829742999500687e+24  3.2245356857065306e+24  -5.1480068037186388e+24  2.2383262321847943e+25  -1.7667302213012683e+26  5.1449283743105505e+26  -4.4763949738820638e+27  -6.1041049328036001e+28  5.0290717891130622e+28  7.4555957240382074e+30  9.0509854041221571e+31  7.0394445606826720e+32  4.6208988226668981e+33  -2.3567207145897321e+34  -9.8748168126820840e+34  9.1828218756985918e+34  -1.7025091505972735e+36  2.4617195201937828e+36  5.6982913885599359e+36  -1.2312196065162273e+38  -3.3672733658179531e+38  -2.0081099675833057e+38  -6.1963140210045838e+38  3.3764330273331380e+38  8.2118502563232555e+37  4.0335693898814171e+37  -1.0317683768216143e+37  8.2907137261940623e+36  2.0217047158160508e+38  -3.7030365267034626e+38  6.7562000873302746e+38  -1.2782814542929427e+40  7.5115716805394614e+40  8.2857647148256115e+41  -5.5815431068686563e+41  -2.2071850450770207e+43  -3.2535416879823798e+43  -1.3425936915526715e+44  3.4322879020897584e+44  -5.0450392589638433e+45  4.1320862456152757e+45  -1.0555585242439198e+44  -1.5917044758086822e+44  -1.0728993471561955e+45  3.3964036814224229e+43  3.4604442248184647e+44  -7.1752524916205635e+42  1.9827169095643281e+43  -8.9931036138867828e+41  1.3078862882823307e+42  -4.1531352730145361e+41  2.3311665832439235e+40  8.8253182563830289e+39  7.8823743677074437e+38  -2.0838670571911270e+38  7.9837630877842256e+36  -1.8995056499384766e+45  -5.5485661767727079e+45  -3.9746669877502890e+46  -2.6565563281096563e+47  -1.4391494238690305e+48  -1.2637354764639694e+49  -2.7929846137999557e+49  1.4007312658506709e+49  -2.5617487126645192e+51  1.3580838300162988e+52  -3.7687380702347400e+52  7.7871723943099577e+53  -3.1198074570126447e+54  -2.7056646966045167e+55  1.8436575072080701e+56  -5.9522985697588995e+56  4.0468142703316297e+57  -3.4519528329086086e+58  3.1042629981031223e+58  -1.0559490994844259e+60  -2.2727446484382260e+61  -4.1975203564232136e+61  -6.7024332240805954e+62  9.9611081175338598e+61  1.2112175458003906e+64  -2.3359156747923943e+64  -8.4456359047273934e+64  -5.7767933328361365e+61  3.0593716639537160e+62  -4.4331032628700370e+62  -4.2200184598354920e+62  -7.2116389984506265e+63  8.3885896491718845e+63  -4.0412850577649421e+64  2.4887741495315464e+64  -1.9464745482064595e+62  -3.1591654389748169e+63  -1.0309357555901801e+63  1.6968340922354569e+62  1.5989798435833839e+61  2.2485716751629972e+59  1.4334153974248536e+59  7.1349314076644280e+57  3.4735756582830675e+56  -2.5666207799306864e+56  9.7643107998831692e+54  4.4096232115424959e+54  -1.3420964902582385e+54  7.8897145105312767e+52  -3.6789708351217975e+52  2.9644385807775910e+51  -1.2568583373811482e+51  -3.7198934370674061e+49  1.1621941107929653e+49  6.9320931032587289e+48  1.5293994220810673e+47  -4.2753105670774169e+46  7.0196848029575624e+47  -9.0312273220239521e+47  -1.1595014984235192e+48  -4.6241028949245973e+47  5.8135744911329900e+47  4.1037572231915367e+47  -3.4165908734536280e+46  -1.0999930009661554e+46  1.9718667877848214e+45  -4.9588653557007450e+44  8.0923279015339519e+43  1.1722530032670732e+43  -2.5968722405256918e+42  4.1830815006075345e+41  5.3233577183744925e+39  -1.8341926151481500e+39  -1.8956507059257621e+38  3.1750628738819510e+35  -1.9935117703305298e+36  1.5455065282041541e+35  9.8463032652350088e+33  3.9089672801001635e+33  1.0687905244866705e+33  4.9730565345061770e+31  -7.6564673495213655e+31  -7.8793704099176672e+31  4.9082586553688482e+34  -7.1195228598149295e+34  -8.4263531158392287e+35  2.7505332818067459e+36  3.8750819527884487e+37  1.0743416404175606e+38  -8.9855822681906023e+38  -1.6015135976723058e+39  7.7942117129324883e+38  -3.6936768652023114e+39  -6.1999164944973766e+38  9.8134797516337574e+37  -7.3052512007874708e+37  2.6234234141634589e+37  1.0668121385231861e+37  -1.8129482362425141e+36  4.4797809200264780e+35  -1.2945915857159676e+35  4.0141028719681792e+34  4.5895032714928410e+33  -2.2540462288101403e+32  8.0935008710579119e+31  2.9026374135088323e+31  -4.6869452054420408e+29  6.5217882559372443e+29  8.7610965071090220e+28  7.6423720508530234e+52  -1.4116091099498876e+54  -3.5241868623310569e+52  -1.2906218545427313e+53  -2.3024177198987932e+51  1.1099285919356582e+51  -1.7497352848878365e+50  1.1439988958493798e+48  4.0704091636531850e+48  1.2833171863182712e+47  5.4345027767974243e+46  7.1858913293033795e+44  -1.5753636746560181e+45  -3.8480853482537499e+44  -7.5060533176506805e+42  -4.9957731619686712e+42  -3.8579916214882768e+41  3.0182740459285934e+41  2.2415042442382328e+40  -3.9899695624692311e+38  2.4545368779380487e+38  1.6658483224908558e+37  -1.1313500235354020e+36  3.9881324242072269e+35  6.1844142116594331e+35  9.5771699519272790e+36  -6.4399976946899384e+37  2.9006581389372137e+38  -2.2047521289979861e+39  2.8639303262065368e+39  1.4430548828265693e+40  1.5724303927872555e+42  -4.1727563671115609e+41  -1.8261850668267759e+44  8.0095893762171339e+44  2.9114660431816483e+45  -7.7617687502247934e+46  -3.0564205123106751e+47  -1.3744741638564528e+48  -1.5497190324000371e+48  -1.0137574261590362e+50  -1.5870185425411955e+50  -1.5045894395903962e+52  2.2105855160009271e+52  -7.0230278403991044e+53  6.7823415001244815e+53  2.4286306864728686e+54  3.8496201327312070e+54  1.9434015604801279e+53  1.3539793904900906e+55  -2.1581481878552513e+55  -1.7221239623520717e+54  2.7623604047792879e+26  1.9457870460901745e+42  6.4621311051455441e+66  -5.2273205002169042e+33  8.2412930754369846e+23  -5.8361603693906112e+39  1.2479177268268812e+64  1.0584761802611832e+33  4.6199794844304442e+50  -3.7741661095232865e+41  7.0535856208581483e+33  1.3015911336190522e+49  -2.3481619518582398e+58  -2.5557180807828022e+42  -1.8718369823283908e+27  1.9326903443100876e+40  6.2100181630834543e+66  -6.6704773964772582e+45  -1.4818740088248405e+44  -7.8615985905471248e+55  -1.3764917297323350e+35  1.5461132721091909e+44  -2.3082883633062086e+61  -9.5194422426796994e+38  -3.6104051221622552e+29  1.8450751326299168e+48  -7.1482970183093252e+36  -1.0886038849203310e+45  1.1736481508957664e+38  -3.7308692753737173e+45  -6.8729109025055886e+53  -5.6011731707476486e+32  -4.2613275294551469e+64  -2.0813626100209181e+46  1.3183358371343260e+57  7.6101698062147405e+39  4.1814278286297440e+50  -3.9793310242259438e+41  6.9598920093227747e+34  8.5467353557628157e+49  3.1384675981634877e+48  -1.4826065774141706e+56  -1.0091494325191534e+40  -1.9975774756954958e+39  -9.3833047764771705e+50  2.9383970000274666e+36  -6.5311654230758997e+35  4.1809064295492507e+42  -4.5979566496599995e+27  -6.8458412152119615e+65  1.5104222240607038e+42  -9.9207624859122021e+57  5.8279046647481270e+46  9.0935991593903882e+48  -2.7815706686788182e+40  -6.0879615889041658e+32  -2.8991007890974159e+43  -2.2471031069777339e+36  1.7556999213097828e+51  -1.2579371139919000e+38  2.0188471330341656e+52  -3.6848086294951069e+55  1.0925673896188685e+36  -2.7459804296361800e+39  -1.3011852726501681e+47  -1.6462573096157251e+49  4.9123185471257454e+34  8.6001550293213624e+42  6.4027890638324380e+42  -1.3457327649653197e+59  2.6442146714075080e+49  2.1203026729240937e+45  1.1355423244455382e+40  5.1328554419005813e+38  -5.0181255112206643e+55  1.2839603709391612e+54  4.8261118191940967e+46  -4.9733193848967360e+59  -4.6708568829545014e+46  3.8099445588720223e+54  2.7125763370760856e+37  2.8513633280804897e+38  -3.9017211304143353e+46  -5.5562705880185925e+46  3.3157545121739276e+43  -7.8271662373374063e+62  -1.0281698238683222e+63  2.1481434408815590e+50  1.3197729354809835e+30  7.3184890180379099e+34  2.4500068389221416e+45  -7.8140473978015161e+38  6.9854194316803624e+31  -1.1124223498918439e+38  -4.4434921933690541e+44  3.3716340860020995e+45  -6.2801470532129097e+64  3.3761665399004342e+28  5.2705721873771603e+41  -3.1643000138487439e+65  -2.4813327316297622e+26  -2.3375950245499142e+34  1.5925375728304753e+51  -2.4358616302735904e+60  3.4950246653953001e+41  -1.1125891392804960e+57  2.1003145735880292e+54  -2.2589360591747765e+45  4.8726320761454189e+31  -2.2021009833303261e+44  1.8723128537014906e+38  2.7107999520283046e+39  -3.6164553870077493e+37  6.9207429506976086e+29  -6.9915818575849825e+63  -8.4238428705407328e+40  5.7837948273755177e+32  2.1687147999271454e+51  -2.5416694653218633e+61  -8.7585508776821273e+34  -1.9107282289580119e+42  1.9925778753979471e+46  -1.3310812944141049e+48  8.4725453081256989e+46  3.5279678597757391e+41  -1.8087188497889919e+55  -1.3503093560912288e+38  -1.3139611618391632e+57  4.6991844349549072e+48  -6.4217709634713782e+48  1.6483904342823685e+45  -9.3355248561729239e+46  -8.9592819389552105e+60  -7.8765909480475184e+43  -8.1703844326416008e+40  2.9656153069169058e+37  -3.4747662785836259e+44  2.0817977860982230e+33  4.1197908096054268e+48  -4.9676033509903189e+52  3.3765468925381410e+41  -1.9571271229934016e+28  7.0824697612420146e+45  1.0578350634260539e+44  -4.9230949407293831e+35  3.1416172375017509e+51  -5.6860705837611498e+34  2.1589167175685779e+42  -8.7330753496532910e+47  1.0277833264980706e+65  -1.8094544080862816e+39  -5.5446768792278253e+49  -3.6428568180256077e+50  -3.5962821098598506e+40  -1.0262941004863447e+27  5.8292851212163517e+56  6.7005437789114404e+55  7.8016730741018041e+57  2.1511523332418074e+39  -5.6223092869366369e+34  -2.3510576370708545e+42  -1.2712235059684975e+35  -4.4657309836281346e+36  2.2923573865854139e+38  1.9027600214028554e+39  -1.0683802396161334e+52  -9.1495257913590682e+50  2.7536435216015919e+51  1.1439819208788294e+50  1.7674010845368615e+49  -7.7922532252312491e+67  2.9674160570562040e+34  -5.6776177501833012e+65  2.3466440351186291e+43  -3.5367277280223530e+27  -1.1007517907375133e+39  5.4818568845246082e+24  8.0168903398284245e+40  5.3362493001016944e+40  4.1550925226166600e+25  7.4841097676629822e+62  1.4101312407685877e+31  1.0340088900535081e+65  -8.1628270880209588e+33  5.5219825793157934e+33  2.6273331864763976e+35  -9.9463335904314013e+40  -4.0212678260864688e+41  5.4197437712940384e+36  7.3706890538255731e+49  -1.1661077655640610e+64  -1.4923836346206807e+43  -5.1506538436715666e+33  -2.5304169166271913e+59  -8.6552198231300191e+56  -3.9356324159318715e+49  -1.0719016079746252e+66  -4.4056473131291980e+52  6.2365003933770838e+42  -5.0196891374466509e+41  -2.1288091505396068e+34  -2.5338231321544764e+31  6.2477446818799794e+45  5.2090822952846266e+41  -4.1330885852435549e+47  1.6542401396996850e+50  -6.6840804130203365e+51  -4.5193178340056371e+55  -1.5821149060551682e+55  1.4974850424691493e+65  7.5132846618943424e+25  1.2529105523675647e+31  -1.6117356746576597e+60  -2.2095666591739773e+43  -1.9197045357881986e+34  -5.4856427357415889e+45  9.9057955781206510e+42  5.4441310455014686e+56  9.8879293649825806e+45  -8.3528687459541082e+49  3.7719771141577811e+39  -2.4638815105719749e+54  -7.2193504571245653e+47  5.8735658685595238e+24  7.1223359527287096e+39  5.3843123785341546e+63  -1.2371196803320748e+33  3.0073450833095622e+46  3.9614240665039367e+55  3.4546637729946328e+41  1.2811555814597544e+35  -1.5730116572849956e+35  2.6042490129305199e+42  -2.8964011154840989e+41  -3.4943017324470770e+45  -1.0815946438685946e+28  5.7065826407193112e+28  -6.5160581867942745e+26  -1.5482803040831703e+39  3.1383686581165407e+40  5.9406148134756808e+29  3.6556072254225971e+49  3.2821324293396453e+37  -2.9623267797508193e+38  6.9360259826404094e+44  8.4568669685316031e+46  -1.6259882950401716e+46  4.3783747035282237e+37  -1.5721509002184257e+54  3.3136199059506243e+66  4.4904401701248656e+55  -4.2576814421831556e+57  2.4439431722260155e+43  -2.0596073518420048e+49  3.3921794162324030e+49  -3.8733376820572205e+37  -8.6512041175122420e+37  -4.3303164813138556e+53  -3.7390295231727812e+52  1.5277714449472646e+37  1.0280968311517740e+37  1.3992817465972350e+47  -2.0785291775849928e+62  -7.9798895967117538e+47  2.4543217535144931e+44  1.4957078698746874e+37  -1.4174060344256499e+46  -1.0555019061110940e+33  1.4092235547617990e+43  -5.9956425674429318e+41  2.5576525246209791e+40  1.2546380035234866e+36  3.6424126658640035e+35  -2.0290659200732688e+42  9.7249325397864541e+52  -1.5825576215127883e+52  5.1994103059895645e+35  1.6264634546038126e+40  2.9527612629017131e+36  3.1922575392125020e+32  7.8561698030479873e+43  -9.2367154065468084e+39  5.4579621544203369e+51  6.7551312535518728e+54  -2.5787309330086901e+55  6.9599738033040472e+38  3.0368834117328323e+38  4.6261062185773211e+31  -1.4980900773718421e+57  -9.6090857915311024e+57  -1.5989803609707959e+58  9.5222781505763240e+40  -3.3874549657151323e+56  5.8484756615301449e+50  -3.1719989263944478e+39  -9.7873664310794709e+47  -4.5972582900732372e+48  -2.9085026942258713e+49  5.1282099495386151e+42  1.6018795893838975e+42  2.0982340068868941e+46  -1.5451302980971004e+46  -4.7245284969684636e+65  -1.4824451500490378e+31  -6.2072175417958063e+49  2.3598167257599186e+42  -1.6048013755953608e+62  1.6094662009529929e+62  -1.7576567090467796e+48  -5.0530272316969857e+47  2.6558680437185869e+45  -7.7914354222522778e+39  3.4031817727303868e+38  3.7250626554938166e+38  1.3350014766046559e+55  -2.3296494608952075e+54  1.3001165416562372e+47  6.8373275480474284e+43  5.6197885499371165e+40  -6.8864630278100765e+43  -1.4339011759266926e+46  2.2132868048233944e+56  -1.7443431707230078e+44  -6.5771553525223525e+36  3.3379045911701172e+44  1.5790181772631448e+62  1.0882182285108818e+38  6.4137863165275011e+23  -2.7678782127542199e+31  -3.0737058217730128e+41  -4.4635773273104442e+45  -4.9688005238397391e+37  1.1176993967114972e+48  -1.3512487749661256e+56  5.4551574265478385e+47  -4.5978527480124175e+38  5.3646625446231032e+37  6.7443721676563546e+35  -8.1642509580218963e+45  -8.6504458056093988e+61  -4.7866599157843526e+62  -5.8010798019127721e+63  -9.0515507262322424e+61  1.1965007175414049e+53  2.3446506179814323e+37  -1.3147526042720919e+40  -8.5897326297283097e+47  -5.8346513626064272e+47  -4.0562455997964320e+48  -5.5356722850701110e+53  -6.9290850988056462e+56  -1.0650089787638235e+39  -7.6396454406147199e+39  -5.0927814924200332e+31  7.7947890809872907e+36  -1.8356462300217747e+47  -5.3880151818501690e+30  -3.4071210938987523e+41  -2.7166309539440860e+45  -6.1186329163470415e+51  -7.3790924280860105e+27  -2.0430927152450500e+39  -2.2027114173062607e+59  -6.6398356950053601e+58  -7.0736189285349376e+64  -5.2709512577014257e+43  5.6791170710376501e+33  -3.7192334756407861e+43  -7.3611957269900761e+39  -1.2226995093922816e+39  -1.6767408282963115e+38  4.4871030734817820e+37  -2.7703773839174631e+53  7.3096802613697792e+26  1.7526213634224475e+63  -1.2308761860648303e+36  -1.4740435930963460e+47  -1.6481705393041912e+35  1.4700327264689209e+43  -2.1821301917660686e+58  -4.6058154353259945e+48  6.0477607870611517e+37  7.5212940719507372e+52  -5.7358281208109566e+31  -2.2006727674953467e+49  -1.3677419710041465e+66  -1.5255069036454135e+37  -1.7707208622178636e+46  6.7106596178620039e+35  -1.7241227771918663e+45  -4.4772816045040732e+38  -4.9473025541917997e+38  1.1902301878970982e+32  3.6135392155935375e+23  8.0986705879948358e+62  -8.9047824772850256e+41  -2.8739575021407037e+50  -1.2996362820974494e+63  2.9326795583327923e+46  7.5126295851774745e+37  2.6683964130267489e+45  -2.2933099679836032e+46  -5.8306784053968052e+53  -5.3647244118793530e+28  -1.0857050461671865e+39  6.6471064158270453e+36  -1.1530052310526086e+43  -8.6222560260591903e+46  5.1727044716796832e+45  -1.2121902106656383e+46  -5.0111767565704270e+35  -3.0111233756445462e+45  -3.9969152682549069e+35  8.2270068767587048e+51  -4.7786774648523044e+42  1.2313903526109344e+35  1.0434628056180990e+41  -1.4772408748723298e+60  8.1508463117563469e+33  -7.4905875390530711e+47  -5.0208711494905823e+60  -1.0801264158437072e+59  -9.5688726022118029e+58  1.1358890940380834e+48  2.7459879273863482e+48  -2.0545585613875561e+65  2.5523636768899775e+40  2.3495099374314480e+33  -9.5050012792520058e+43  1.1445648840831711e+50  7.3166024470464135e+55  -1.2961861957632882e+42  -3.2799444137384345e+37  -3.9204691997746310e+66  1.2132611566445342e+36  5.0616508299342166e+42  3.5725504444281424e+37  1.6040974030213893e+47  -2.1761191832645893e+36  6.6803564055466632e+39  -1.7924429144120915e+32  -2.0711059692166339e+43  -4.7058511702569593e+36  3.8096186086001926e+36  1.5360035469559749e+45  5.1371504021407815e+43  -3.3848822018084693e+44  6.4690417517604638e+64  -5.4625059598081209e+27  -5.9700507928514777e+43  -4.1283995199363253e+34  3.5602883876709712e+50  1.5951197804798310e+43  2.0755439481219898e+44  -5.4101236359728776e+45  1.2079814650667381e+42  7.4255312450443160e+34  4.7825764968326630e+35  -9.9726507862130201e+47  -2.9296378074227658e+34  8.4915057957305898e+39  3.0811749773557369e+61  -6.3154827409777685e+40  -2.4827151695049003e+48  -3.4280790243071492e+30  -1.3341859399225762e+47  -5.7460178036742421e+32  -4.2849679680723936e+31  1.5621489440579156e+64  3.4674237989219521e+64  7.2586174608349627e+27  -1.3090153082991004e+29  -1.6973258955376432e+39  6.8928270538314888e+47  -2.4361073449768915e+52  -1.0665954623836767e+51  3.0327014673256777e+49  -3.3136511225570948e+50  -1.1584169264680041e+47  2.3644921861049436e+67  -5.3631001137311944e+51  1.2252171641829341e+47  -1.3928271362552274e+36  4.7378211962405935e+37  2.1743118980308811e+50  4.4005600623537828e+53  3.4988110991288022e+50  1.3941178681835356e+48  3.7526621688161268e+57  6.0126502714086609e+35  -7.2650309137676127e+38  -5.5558526717458427e+35  -9.8444622952593719e+39  -3.9242696866025683e+41  1.7312139483642751e+34  -6.3128125458821294e+65  1.2012067603671330e+26  5.3039052169812745e+26  3.1063355639500922e+27  -7.9721239529466505e+64  2.8059364763385180e+64  -7.7215090567205460e+60  -8.3060034599041038e+41  -7.0757595001972185e+59  7.3671047661873042e+39  1.2643204935144643e+58  1.7610140511513718e+42  -2.1228834114209489e+41  -1.2243791264622253e+35  3.6533847858536052e+33  -1.5646896687004707e+34  -1.1443390462687815e+50  -8.0021055562159871e+26  1.5427583925914107e+34  3.0857727052551554e+40  -2.6406883346379238e+64  7.4494303992451323e+41  -4.4320560108020044e+47  8.3842422826820303e+44  -8.5894059165038459e+33  -1.4810064263095790e+42  1.8267158173890667e+44  -3.1775087860497063e+34  5.2464620487402841e+54  -4.7214226266833536e+59  -1.5585565025050435e+59  -1.1430440741934520e+61  2.7267693239798623e+34  1.9005622481490173e+50  8.0968987635234603e+29  -4.5797157850153093e+60  4.3127626185278942e+37  6.9148042972147038e+43  -4.9186831613222667e+40  -1.7699132587877586e+42  -3.6740442283026264e+66  -2.7070216993800358e+49  4.7845696110194523e+28  -9.5786038257029127e+58  -1.1092288606081044e+38  1.7581625415703583e+55  1.6440716395119602e+38  -5.1326517139248315e+43  -9.0129483574214511e+54  2.4217186302340018e+50  -5.8609418455641967e+52  -1.7884861875008183e+51  3.9253832951336820e+32  7.6803699055798368e+37  -8.3131846088843071e+44  -3.3044016720528163e+50  -1.0466746650533838e+49  -1.2165427557235215e+49  1.2886708837849872e+49  -5.3606296088512599e+50  5.4622029093656340e+39  3.1330081769143398e+38  2.8292577957719284e+45  1.0243583627586608e+45  6.2788817165935046e+34  -1.1077729813000999e+46  8.9475554635028772e+34  1.1297533146160086e+42  4.0790519913844171e+39  1.4336142660449629e+40  1.1628057814882705e+40  2.8845702794833411e+43  -3.8654865085538085e+47  -2.0229776732921164e+56  5.4884375270586997e+55  -3.1053374648639257e+57  -8.2945716998245781e+48  -2.9480133474956916e+64  2.0919898863550979e+43  3.5234277374904784e+47  1.6008599829245891e+30  5.6476474200419587e+28  -5.2228979533410237e+31  -4.1923876784801832e+45  5.8877677167661715e+44  -6.5360350941169562e+44  1.5863772078264044e+51  -6.5687432933589697e+53  3.9046342166252250e+32  -2.1519592661543578e+38  8.3994286863220950e+63  1.6173180339420919e+42  -1.0148665430739948e+41  4.3125679752361382e+46  7.2815679977927968e+33  -1.8847089918534487e+54  -2.7049587613684854e+39  3.3926781363106970e+55  2.413285952707