<?xml version="1.0"?>
<VTKFile type="UnstructuredGrid"  version="0.1"  >
<UnstructuredGrid>
<Piece  NumberOfPoints="2331" NumberOfCells="4248">
<Points>
<DataArray  type="Float64"  NumberOfComponents="3"  format="ascii">0 0.3 0  0 0 0  0.04999999999999999 0 0  0.0514582251803892 0.02410733605106462 0  0.0558116365147896 0.04786313285751154 0  0.06299675146291706 0.07092097740850717 0  0.07290879486935808 0.09294463440875382 0  0.08540322682126872 0.1136129493462312 0  0.1002978503657798 0.132624531648159 0  0.117375468351841 0.1497021496342203 0  0.1363870506537689 0.1645967731787313 0  0.1570553655912463 0.177091205130642 0  0.1790790225914929 0.187003248537083 0  0.2021368671424885 0.1941883634852104 0  0.2258926639489354 0.1985417748196108 0  0.25 0.2 0  0.2741073360510646 0.1985417748196108 0  0.2978631328575116 0.1941883634852104 0  0.3209209774085071 0.187003248537083 0  0.3429446344087537 0.177091205130642 0  0.3636129493462312 0.1645967731787313 0  0.3826245316481591 0.1497021496342202 0  0.3997021496342202 0.132624531648159 0  0.4145967731787313 0.1136129493462312 0  0.427091205130642 0.09294463440875371 0  0.4370032485370829 0.07092097740850713 0  0.4441883634852104 0.04786313285751155 0  0.4485417748196108 0.02410733605106461 0  0.45 0 0  0.55 0 0  0.5514582251803892 0.02410733605106462 0  0.5558116365147896 0.04786313285751154 0  0.5629967514629171 0.07092097740850717 0  0.5729087948693581 0.09294463440875382 0  0.5854032268212688 0.1136129493462312 0  0.6002978503657798 0.132624531648159 0  0.617375468351841 0.1497021496342203 0  0.6363870506537689 0.1645967731787313 0  0.6570553655912463 0.177091205130642 0  0.6790790225914929 0.187003248537083 0  0.7021368671424885 0.1941883634852104 0  0.7258926639489354 0.1985417748196108 0  0.75 0.2 0  0.7741073360510646 0.1985417748196108 0  0.7978631328575116 0.1941883634852104 0  0.8209209774085071 0.187003248537083 0  0.8429446344087537 0.177091205130642 0  0.8636129493462312 0.1645967731787313 0  0.8826245316481591 0.1497021496342202 0  0.8997021496342202 0.132624531648159 0  0.9145967731787312 0.1136129493462312 0  0.927091205130642 0.09294463440875371 0  0.9370032485370829 0.07092097740850713 0  0.9441883634852104 0.04786313285751155 0  0.9485417748196108 0.02410733605106461 0  0.95 0 0  1 0 0  1 0.3 0  0.9758926639489353 0.3014582251803892 0  0.9521368671424885 0.3058116365147896 0  0.9290790225914928 0.3129967514629171 0  0.9070553655912461 0.3229087948693581 0  0.8863870506537688 0.3354032268212687 0  0.867375468351841 0.3502978503657798 0  0.8502978503657798 0.367375468351841 0  0.8354032268212687 0.3863870506537689 0  0.822908794869358 0.4070553655912464 0  0.8129967514629171 0.4290790225914929 0  0.8058116365147896 0.4521368671424885 0  0.8014582251803892 0.4758926639489354 0  0.8 0.4999999999999999 0  0.8014582251803892 0.5241073360510646 0  0.8058116365147896 0.5478631328575115 0  0.8129967514629171 0.5709209774085071 0  0.8229087948693581 0.5929446344087538 0  0.8354032268212688 0.6136129493462312 0  0.8502978503657798 0.632624531648159 0  0.867375468351841 0.6497021496342202 0  0.8863870506537689 0.6645967731787313 0  0.9070553655912463 0.677091205130642 0  0.9290790225914929 0.6870032485370829 0  0.9521368671424885 0.6941883634852104 0  0.9758926639489354 0.6985417748196108 0  1 0.7 0  1 1 0  0.95 1 0  0.9485417748196108 0.9758926639489353 0  0.9441883634852104 0.9521368671424885 0  0.9370032485370829 0.9290790225914928 0  0.927091205130642 0.9070553655912463 0  0.9145967731787312 0.8863870506537688 0  0.8997021496342201 0.8673754683518409 0  0.882624531648159 0.8502978503657798 0  0.863612949346231 0.8354032268212686 0  0.8429446344087537 0.822908794869358 0  0.8209209774085071 0.8129967514629171 0  0.7978631328575114 0.8058116365147896 0  0.7741073360510646 0.8014582251803892 0  0.75 0.8 0  0.7258926639489353 0.8014582251803892 0  0.7021368671424885 0.8058116365147896 0  0.6790790225914928 0.8129967514629171 0  0.6570553655912461 0.8229087948693581 0  0.6363870506537688 0.8354032268212688 0  0.617375468351841 0.8502978503657798 0  0.6002978503657798 0.867375468351841 0  0.5854032268212687 0.8863870506537689 0  0.572908794869358 0.9070553655912463 0  0.5629967514629171 0.9290790225914929 0  0.5558116365147896 0.9521368671424885 0  0.5514582251803892 0.9758926639489355 0  0.55 0.9999999999999999 0  0.45 0.9999999999999999 0  0.4485417748196108 0.9758926639489353 0  0.4441883634852104 0.9521368671424885 0  0.4370032485370829 0.9290790225914928 0  0.427091205130642 0.9070553655912463 0  0.4145967731787313 0.8863870506537688 0  0.3997021496342201 0.8673754683518409 0  0.382624531648159 0.8502978503657798 0  0.363612949346231 0.8354032268212686 0  0.3429446344087536 0.822908794869358 0  0.3209209774085071 0.8129967514629171 0  0.2978631328575115 0.8058116365147896 0  0.2741073360510646 0.8014582251803892 0  0.25 0.8 0  0.2258926639489353 0.8014582251803892 0  0.2021368671424885 0.8058116365147896 0  0.1790790225914928 0.8129967514629171 0  0.1570553655912462 0.8229087948693581 0  0.1363870506537688 0.8354032268212688 0  0.117375468351841 0.8502978503657798 0  0.1002978503657797 0.867375468351841 0  0.08540322682126869 0.8863870506537689 0  0.07290879486935797 0.9070553655912463 0  0.06299675146291703 0.9290790225914929 0  0.05581163651478957 0.9521368671424885 0  0.0514582251803892 0.9758926639489355 0  0.04999999999999999 0.9999999999999999 0  0 1 0  -0 0.7000000000000001 0  0.0241073360510646 0.6985417748196108 0  0.04786313285751161 0.6941883634852104 0  0.07092097740850711 0.6870032485370829 0  0.09294463440875372 0.677091205130642 0  0.1136129493462312 0.6645967731787312 0  0.1326245316481591 0.6497021496342202 0  0.1497021496342202 0.632624531648159 0  0.1645967731787313 0.6136129493462312 0  0.177091205130642 0.5929446344087537 0  0.187003248537083 0.5709209774085071 0  0.1941883634852104 0.5478631328575115 0  0.1985417748196108 0.5241073360510646 0  0.2 0.5 0  0.1985417748196108 0.4758926639489353 0  0.1941883634852104 0.4521368671424885 0  0.1870032485370829 0.4290790225914928 0  0.177091205130642 0.4070553655912463 0  0.1645967731787313 0.3863870506537688 0  0.1497021496342202 0.3673754683518409 0  0.132624531648159 0.3502978503657798 0  0.113612949346231 0.3354032268212686 0  0.09294463440875361 0.322908794869358 0  0.07092097740850711 0.3129967514629171 0  0.04786313285751148 0.3058116365147896 0  0.02410733605106464 0.3014582251803892 0  0.6985417748196108 0.5241073360510646 0  0.7 0.5 0  0.6985417748196108 0.4758926639489353 0  0.6941883634852104 0.4521368671424885 0  0.6870032485370829 0.4290790225914928 0  0.677091205130642 0.4070553655912463 0  0.6645967731787312 0.3863870506537688 0  0.6497021496342201 0.3673754683518409 0  0.632624531648159 0.3502978503657798 0  0.613612949346231 0.3354032268212686 0  0.5929446344087537 0.322908794869358 0  0.5709209774085071 0.3129967514629171 0  0.5478631328575114 0.3058116365147896 0  0.5241073360510646 0.3014582251803892 0  0.4999999999999999 0.3 0  0.4758926639489353 0.3014582251803892 0  0.4521368671424885 0.3058116365147896 0  0.4290790225914928 0.3129967514629171 0  0.4070553655912462 0.3229087948693581 0  0.3863870506537688 0.3354032268212687 0  0.367375468351841 0.3502978503657798 0  0.3502978503657798 0.367375468351841 0  0.3354032268212687 0.3863870506537689 0  0.322908794869358 0.4070553655912464 0  0.3129967514629171 0.4290790225914929 0  0.3058116365147896 0.4521368671424885 0  0.3014582251803892 0.4758926639489354 0  0.3 0.4999999999999999 0  0.3014582251803892 0.5241073360510646 0  0.3058116365147896 0.5478631328575115 0  0.3129967514629171 0.5709209774085071 0  0.3229087948693581 0.5929446344087538 0  0.3354032268212687 0.6136129493462312 0  0.3502978503657798 0.632624531648159 0  0.367375468351841 0.6497021496342202 0  0.3863870506537689 0.6645967731787313 0  0.4070553655912463 0.677091205130642 0  0.4290790225914929 0.6870032485370829 0  0.4521368671424885 0.6941883634852104 0  0.4758926639489354 0.6985417748196108 0  0.4999999999999999 0.7 0  0.5241073360510646 0.6985417748196108 0  0.5478631328575116 0.6941883634852104 0  0.5709209774085071 0.6870032485370829 0  0.5929446344087537 0.677091205130642 0  0.6136129493462312 0.6645967731787312 0  0.6326245316481591 0.6497021496342202 0  0.6497021496342202 0.632624531648159 0  0.6645967731787312 0.6136129493462312 0  0.677091205130642 0.5929446344087537 0  0.6870032485370829 0.5709209774085071 0  0.6941883634852104 0.5478631328575115 0  0 0.15 0  1 0.15 0  1 0.85 0  0 0.8500000000000001 0  0 0.075 0  1 0.075 0  1 0.925 0  0 0.925 0  0.5 0.8127595604293815 0  0.5069440078039168 0.190422209288238 0  0.25 0.3127595604293815 0  0.756944007803917 0.3095777907117619 0  0.756944007803917 0.6904222092882382 0  0.25 0.6872404395706185 0  0 0.225 0  0.4255768646051012 0.2241073097134061 0  1 0.7749999999999999 0  0.6773391559270888 0.2766774022734219 0  1 0.225 0  0.6755768646051011 0.7241073097134062 0  0 0.7750000000000001 0  0.5818971135297744 0.2287925518358889 0  0.8318971135297746 0.728792551835889 0  0.1659156081861886 0.7301636995921477 0  0.08376842746533225 0.2299656297760495 0  0.4236002201977974 0.7746535834185855 0  0.0840843918138115 0.7698363004078523 0  0.3340843918138113 0.7301636995921477 0  0.3340843918138114 0.2698363004078523 0  0.9159156081861887 0.2301636995921477 0  0.5840843918138116 0.7698363004078522 0  0.1659156081861887 0.2698363004078523 0  0.9162315725346678 0.7700343702239506 0  0.8340843918138114 0.2698363004078523 0  0.75 0.6146645247768686 0  0.5 0.1125158665330878 0  0.75 0.3874841334669124 0  0.2504983345544904 0.6122915843562002 0  0.2504983345544902 0.3877084156437999 0  0.5 0.8879783056303169 0  0.7005361650220154 0.3333055947145943 0  0.70416808765371 0.6599554817221275 0  0.449930214263529 0.1678187287522426 0  0.2247310981387008 0.7415600637745463 0  0.5155081196221678 0.7563797802146907 0  0.2752689018612993 0.2584399362254537 0  0.05605196690611226 0.8246131191226815 0  0.9439480330938878 0.1
[...]
<PointData  Scalars="Temperature"> 
<DataArray  type="Float64"  Name="Temperature"  format="ascii">5.2566536321934136e+03  3.0665308758757011e+01  3.0091127761655567e+01  3.2282364747465436e+01  2.4920669428306450e+01  7.7505099781861389e+01  -1.0564718947369605e+02  1.2155084056092126e+03  1.6191063292827881e+04  -1.3284949937989568e+04  -1.9738814079124825e+06  -2.3962963286427557e+07  -1.8637322078469968e+08  -1.2234088945815072e+09  6.2395505159595966e+09  2.6144132288674858e+10  -2.4312036764202335e+10  4.5074886204607709e+11  -6.5175407245635022e+11  -1.5086546571027288e+12  3.2597230760232547e+13  8.9150454035474172e+13  5.3165839512931289e+13  1.6405089468721409e+14  -8.9392961219778578e+13  -2.1741334881010328e+13  -1.0679101558577529e+13  2.7316647406056133e+12  -2.1950130347695354e+12  -5.3525768109638391e+13  9.8039972345801516e+13  -1.7887419282736241e+14  3.3843219618621420e+15  -1.9887308011217836e+16  -2.1937027562304176e+17  1.4777448936786960e+17  5.8436464026457979e+18  8.6139343972280740e+18  3.5545922229565276e+19  -9.0871750407277920e+19  1.3357024859608979e+21  -1.0939930468661418e+21  2.7946504923718103e+19  4.2141270188833890e+19  2.8405612952091879e+20  -8.9921695505978204e+18  -9.1617204869251154e+19  1.8996884064730025e+18  -5.2493544036477798e+18  2.3809747034633850e+17  -3.4627024229969408e+17  1.0995658951198579e+17  -6.1718944900091310e+15  -2.3365525874753710e+15  -2.0869028956541003e+14  5.5171551019305266e+13  -2.1137461288586296e+12  5.0290479191249735e+20  1.4690140661771542e+21  1.0523154139924639e+22  7.0333821193692490e+22  3.8102289485966388e+23  3.3458106683922620e+24  7.3945836700373437e+24  -3.7085147169779425e+24  6.7823736313518520e+26  -3.5956032347479210e+27  9.9779457620749612e+27  -2.0616976383692439e+29  8.2598655077799827e+29  7.1633992837818439e+30  -4.8811868237950154e+31  1.5759044853183821e+32  -1.0714168123667178e+33  9.1392390498121751e+33  -8.2187106795564204e+33  2.7956845622628381e+35  6.0172191355687102e+36  1.1113170952999578e+37  1.7745068491756435e+38  -2.6372593338843837e+37  -3.2067664965947327e+39  6.1844679766793930e+39  2.2360295518853623e+40  1.5294384878852847e+37  -8.0998583504790683e+37  1.1736889932454154e+38  1.1172735945687753e+38  1.9093219385692984e+39  -2.2209262352511314e+39  1.0699529222775356e+40  -6.5891693758736852e+39  5.1534007159202090e+37  8.3640679760875823e+38  2.7294603290968115e+38  -4.4924635843717680e+37  -4.2333889637844663e+36  -5.9532198308270179e+34  -3.7950477914581027e+34  -1.8890131729787902e+33  -9.1964866947237100e+31  6.7952727031432730e+31  -2.5851561384633203e+30  -1.1674725177496177e+30  3.5532758545976089e+29  -2.0888462397025530e+28  9.7402819641468302e+27  -7.8485176795953155e+26  3.3276030563248175e+26  9.8486268517581963e+24  -3.0769741983615367e+24  -1.8353105923771789e+24  -4.0491708889504114e+22  1.1319124905824839e+22  -1.8585009869473318e+23  2.3910681693650296e+23  3.0698453558471634e+23  1.2242572188344635e+23  -1.5391765061745049e+23  -1.0864927790319505e+23  9.0456162755819371e+21  2.9122932657452467e+21  -5.2206280966956260e+20  1.3128874609620379e+20  -2.1424892732171874e+19  -3.1036056812777667e+18  6.8753651445428058e+17  -1.1074943271077830e+17  -1.4093888616343785e+15  4.8561279903454831e+14  5.0188417382895859e+13  -8.4061573258113815e+10  5.2779344041896252e+11  -4.0918153550263626e+10  -2.6068640819101896e+09  -1.0349210250903289e+09  -2.8296827356689060e+08  -1.3166424582292967e+07  2.0270949364256836e+07  2.0861097739802595e+07  -1.2994890503927919e+10  1.8849336757302685e+10  2.2309243254357449e+11  -7.2821913835074695e+11  -1.0259497165326041e+13  -2.8443798476418051e+13  2.3789833849369375e+14  4.2400972200770088e+14  -2.0635613375199828e+14  9.7792170049443412e+14  1.6414627219674341e+14  -2.5981738946594090e+13  1.9341062950374520e+13  -6.9456608683222852e+12  -2.8244450683591382e+12  4.7998823039778644e+11  -1.1860471649433563e+11  3.4275039537314892e+10  -1.0627562831872223e+10  -1.2150967467441921e+09  5.9677168059772320e+07  -2.1427969930103816e+07  -7.6848669125247411e+06  1.2411855369255009e+05  -1.7263870520171474e+05  -2.3166029420452945e+04  -2.0233609339760083e+28  3.7373144203289259e+29  9.3304827006898828e+27  3.4169938647855904e+28  6.0957802592419446e+26  -2.9385983010011715e+26  4.6325224638156390e+25  -3.0288013446229343e+23  -1.0776636929255934e+24  -3.3976543452978290e+22  -1.4388151402454212e+22  -1.9025050985166576e+20  4.1708638298341088e+20  1.0188022138221924e+20  1.9872697835457777e+18  1.3226590100130885e+18  1.0214249553127480e+17  -7.9910500979650848e+16  -5.9345084104177980e+15  1.0563668566167470e+14  -6.4985242759371984e+13  -4.4104270182210918e+12  2.9953127448349323e+11  -1.0558804636858092e+11  -1.6373584052422931e+11  -2.5356095476170322e+12  1.7050255684549443e+13  -7.6796553767463656e+13  5.8372051206496938e+14  -7.5824164292393625e+14  -3.8205688705887715e+15  -4.1630978012999142e+17  1.1047606900098325e+17  4.8349275563143373e+19  -2.1205837838289761e+20  -7.7082699104054503e+20  2.0549718808844546e+22  8.0920450107135320e+22  3.6389975643700280e+23  4.1029681987900937e+23  2.6839797368793031e+25  4.2017207473102379e+25  3.9834850665248493e+27  -5.8526493404493646e+27  1.8593860748905821e+29  -1.7956630141690115e+29  -6.4299361786710328e+29  -1.0192085566347527e+30  -5.1452648082795411e+28  -3.5847365005220337e+30  5.7138185683460965e+30  4.5594199362462985e+29  -4.2764441994017929e+01  -5.1515805154446707e+17  -1.7108855132122153e+42  1.3839624912875347e+09  3.0568970146013289e+01  1.5451562443267552e+15  -3.3039322876144944e+39  -2.8023749288135630e+08  -1.2231655227415356e+26  9.9923168010291984e+16  -1.8674763922976248e+09  -3.4460356473751050e+24  6.2168906831857055e+33  6.7664071946546291e+17  5.2543289157265633e+02  -5.1169062617320120e+15  -1.6441371954747629e+42  1.7660463642954249e+21  3.9233446874597736e+19  2.0814023919364198e+31  3.6443391856935837e+10  -4.0934217458548171e+19  6.1113231174655671e+36  2.5203258123150997e+14  9.5616969007093503e+04  -4.8849400667390774e+23  1.8925517935059304e+12  2.8821399411932630e+20  -3.1072994129991367e+13  9.8776860002775990e+20  1.8196417722525098e+29  1.4829423454257700e+08  1.1282104028177276e+40  5.5105244373498986e+21  -3.4903681906200164e+32  -2.0148352088013598e+15  -1.1070565081616221e+26  1.0535502438511355e+17  -1.8426705063215294e+10  -2.2627961995060641e+25  -8.3092692797709793e+23  3.9252842039544515e+31  2.6717798148486810e+15  5.2886985873225275e+14  2.4842826533412115e+26  -7.7795711313235083e+11  1.7291627369357672e+11  -1.1069184648259308e+18  1.2473949564266456e+03  1.8124749204687416e+41  -3.9989276910856365e+17  2.6265776012577672e+33  -1.5429705001435316e+22  -2.4075814637018863e+24  7.3643646091136380e+15  1.6118223055108622e+08  7.6755322055588884e+18  5.9493317143125208e+11  -4.6483141738255574e+26  3.3304591780078879e+13  -5.3450112000170872e+27  9.7557378527072698e+30  -2.8926335422901190e+11  7.2701374518509562e+14  3.4449611076594322e+22  4.3585587110706287e+24  -1.3005639291596790e+10  -2.2769393581830909e+18  -1.6951743744013391e+18  3.5629030961641739e+34  -7.0007068899175758e+24  -5.6136204414708639e+20  -3.0064120967558510e+15  -1.3589523137291391e+14  1.3285769200491506e+31  -3.3993572127146201e+29  -1.2777402163857021e+22  1.3167142463918934e+35  1.2366355998211274e+22  -1.0087042255650812e+30  -7.1816982401910361e+12  -7.5491445957068719e+13  1.0330025884656735e+22  1.4710538523365331e+22  -8.7786463442831145e+18  2.0722862329891918e+38  2.7221373694779753e+38  -5.6873304386840093e+25  -3.4938833609188179e+05  -1.9376110791784321e+10  -6.4865307431555393e+20  2.0688129465229425e+14  -1.8494261579462402e+07  2.9452006652874918e+13  1.1764395209582282e+20  -8.9265906552101523e+20  1.6627042131084022e+40  -8.9090548860586750e+03  -1.3954135957629581e+17  8.3776620515177571e+40  9.6153505179409194e+01  6.1889141720648899e+09  -4.2163326900506145e+26  6.4490805086052431e+35  -9.2532741460210848e+16  2.9456422495615343e+32  -5.5607008255820873e+29  5.9806601197512766e+20  -1.2900539075287370e+07  5.8301860635577139e+19  -4.9570534634411875e+13  -7.1769951610057750e+14  9.5747688032790234e+12  -1.8320089007928382e+05  1.8510605742824987e+39  2.2302597236549820e+16  -1.5312919057610232e+08  -5.7417942674202598e+26  6.7292126959950850e+36  2.3188755514847260e+10  5.0587603275441030e+17  -5.2754618646641435e+21  3.5241125047857822e+23  -2.2431539676073884e+22  -9.3404931038344752e+16  4.7886847654852042e+30  3.5750198782773828e+13  3.4787859920144504e+32  -1.2441354783524769e+24  1.7001999389677370e+24  -4.3642062784607997e+20  2.4716326510214278e+22  2.3720202250209639e+36  2.0853717028090982e+19  2.1631551783359080e+16  -7.8516331281297637e+12  9.1996389288563638e+19  -5.5116763096332312e+08  -1.0907377611089192e+24  1.3152008943034870e+28  -8.9395975865072272e+16  5.2114383434756555e+03  -1.8751236573680815e+21  -2.8006777577484620e+19  1.3034170428779572e+11  -8.3176081268602694e+26  1.5054191326993328e+10  -5.7158532939368045e+17  2.3121307597141405e+23  -2.7211140959774838e+40  4.7906321973998881e+14  1.4679843528027516e+25  9.6446680750622128e+25  9.5213589187075620e+15  3.0183271778355436e+02  -1.5433359837486536e+32  -1.7740066079525382e+31  -2.0655367748064218e+33  -5.6952966502418188e+14  1.4885379714897581e+10  6.2245571724606720e+17  3.3656356497376728e+10  1.1823273656364631e+12  -6.0691449616204547e+13  -5.0376640504015994e+14  2.8285967041212967e+27  2.4223883537016594e+26  -7.2904259183282616e+26  -3.0287564024348156e+25  -4.6792936608202281e+24  2.0630428168988778e+43  -7.8564006918469296e+09  1.5031811952268295e+41  -6.2128719133436867e+18  9.6599581557141323e+02  2.9143022042926075e+14  2.9458091292715824e+01  -2.1225167549605904e+16  -1.4128019803193364e+16  1.9600054786518896e+01  -1.9814601054115048e+38  -3.7333796777535030e+06  -2.7375966252318052e+40  2.1611543513049841e+09  -1.4619758870997930e+09  -6.9560122076284012e+10  2.6333476948332372e+16  1.0646532477373446e+17  -1.4349076105988711e+12  -1.9514313342452704e+25  3.0873358192303144e+39  3.9511695121666929e+18  1.3636645679090264e+09  6.6994209411773909e+34  2.2915180716883365e+32  1.0419807918141220e+25  2.8379197246747355e+41  1.1664198763087929e+28  -1.6511485147175562e+18  1.3289908988766610e+17  5.6361418453935175e+09  6.7084678442811677e+06  -1.6541255032671426e+21  -1.3791338013919771e+17  1.0942584219136973e+23  -4.3796937021793875e+25  1.7696478393445507e+27  1.1965147852919797e+31  4.1887380942357571e+30  -3.9646757760337078e+40  1.0784449230689422e+01  -3.3171218144586738e+06  4.2671607431539447e+35  5.8499518597624166e+18  5.0825256313603220e+09  1.4523547316712592e+21  -2.6226150283384847e+18  -1.4413642784747506e+32  -2.6178848480409100e+21  2.2114689254504251e+25  -9.9865213128248138e+14  6.5232647158032040e+29  1.9113635905748386e+23  2.9291790329959721e+01  -1.8856784555254715e+15  -1.4255269503443193e+39  3.2753440737732875e+08  -7.9621150554611536e+21  -1.0488092761960709e+31  -9.1464164159858096e+16  -3.3919313727303883e+10  4.1646367339942474e+10  -6.8948955638987955e+17  7.6683846680047616e+16  9.2513601404275642e+20  2.8935865208663135e+03  -1.5078721991577959e+04  2.0273209985030078e+02  4.0991590847462381e+14  -8.3090073304384150e+15  -1.5725187525346808e+05  -9.6784254949413618e+24  -8.6896299911257959e+12  7.8429265677419062e+13  -1.8363518442877131e+20  -2.2390030391217203e+22  4.3048953563039861e+21  -1.1591992997016908e+13  4.1623578290225218e+29  -8.7729948543884696e+41  -1.1888692615498725e+31  1.1272450807293853e+33  -6.4704768449312143e+18  5.4529261691487982e+24  -8.9809855711956847e+24  1.0254879110621951e+13  2.2904548910688102e+13  1.1464756153902144e+29  9.8992907147541189e+27  -4.0448607280066582e+12  -2.7219441171347891e+12  -3.7046770333230148e+22  5.5030227657985175e+37  2.1127206003567265e+23  -6.4979547219430400e+19  -3.9599706117254038e+12  3.7526621035396066e+21  2.7945008698420942e+08  -3.7309985289520840e+18  1.5873800522042435e+17  -6.7715287433898340e+15  -3.3217245974383032e+11  -9.6434921545789917e+10  5.3720660127767277e+17  -2.5747305228825126e+28  4.1899102082807947e+27  -1.3765730876288358e+11  -4.3061533679423385e+15  -7.8176013242520593e+11  -8.4516784101975620e+07  -2.0799650899480445e+19  2.4454722941386770e+15  -1.4450261422617755e+27  -1.7884589485264998e+30  6.8273350137445464e+30  -1.8426921643428481e+14  -8.0403194393710438e+13  -1.2247847548747990e+07  3.9662776399283959e+32  2.5440594454750941e+33  4.2333903335967078e+33  -2.5210766348621316e+16  8.9684773230398235e+31  -1.5484167871058361e+26  8.3980453549942212e+14  2.5912602463450435e+23  1.2171499588917586e+24  7.7004242775691415e+24  -1.3577223935289958e+18  -4.2410662036939853e+17  -5.5551924083582294e+21  4.0908192669360330e+21  1.2508454611490866e+41  3.9248860615618019e+06  1.6433957152554516e+25  -6.2477473518352563e+17  4.2488017968296880e+37  -4.2611521840257951e+37  4.6534948792882188e+23  1.3378173466170294e+23  -7.0315598477772836e+20  2.0628262989659422e+15  -9.0101149281148172e+13  -9.8623126479372734e+13  -3.5344914073642600e+30  6.1678778233616306e+29  -3.4421315823135411e+22  -1.8102208792586355e+19  -1.4878705895872936e+16  1.8232297735603730e+19  3.7963339173318864e+21  -5.8598011543605386e+31  4.6182465386446897e+19  1.7413388289144111e+12  -8.8372899227783168e+19  -4.1805393307900551e+37  -2.8811188941817328e+13  3.0779203558584204e+01  7.3281349922702573e+06  8.1378088385736384e+16  1.1817571730039895e+21  1.3155178525433746e+13  -2.9591719431954573e+23  3.5775070425211251e+31  -1.4442835748010607e+23  1.2173073449709467e+14  -1.4203245464246963e+13  -1.7856104198347760e+11  2.1615313064735518e+21  2.2902541237301585e+37  1.2672951033240634e+38  1.5358684670104707e+39  2.3964489048025083e+37  -3.1678028670133454e+28  -6.2075942294607803e+12  3.4808813803175085e+15  2.2741799693396087e+23  1.5447567263032783e+23  1.0739138098260974e+24  1.4656003359132485e+29  1.8345142062997835e+32  2.8196711016234944e+14  2.0226390485977642e+15  1.3483453527169194e+07  -2.0637141989307043e+12  4.8599765173847321e+22  1.4265364161040718e+06  9.0205445022147232e+16  7.1924330661535836e+20  1.6199424380149272e+27  1.9833921542139540e+03  5.4092027409951400e+14  5.8318022218021125e+34  1.7579338016909817e+34  1.8727803496864475e+40  1.3955139567608605e+19  -1.5035781209865344e+09  9.8468795668057293e+18  1.9489179226337420e+15  3.2371656402411769e+14  4.4392655392907039e+13  -1.1879857464638723e+13  7.3347297588887237e+28  -1.6328263870709699e+02  -4.6401635188708883e+38  3.2588138513412988e+11  3.9026132219194899e+22  4.3636240964628380e+10  -3.8919942271998986e+18  5.7773122709671248e+33  1.2194155111699794e+24  -1.6011786436366984e+13  -1.9913048588666131e+28  1.5185954334914910e+07  5.8264047819019933e+24  3.6211737055907573e+41  4.0388652277407080e+12  4.6880829587300035e+21  -1.7766848328899258e+11  4.5647119108245691e+20  1.1853854573794678e+14  1.3098261443049444e+14  -3.1511990895576056e+07  3.0823476983394851e+01  -2.1441685350898136e+38  2.3575911863753283e+17  7.6089639408350394e+25  3.4408600681515177e+38  -7.7644338835062480e+21  -1.9890108873154648e+13  -7.0647294093425679e+20  6.0716669743888628e+21  1.5437048635626584e+29  1.4232804151593658e+04  2.8744651027428481e+14  -1.7598587658507798e+12  3.0526461230337352e+18  2.2827907212289772e+22  -1.3695025682282709e+21  3.2093416814680867e+21  1.3267371984539717e+11  7.9721182966758978e+20  1.0582057714758133e+11  -2.1781462885109223e+27  1.2651817045957885e+18  -3.2601751332152405e+10  -2.7626263977935256e+16  3.9110782050391146e+35  -2.1579823240941148e+09  1.9831751317790469e+23  1.3293038432056284e+36  2.8596953655634834e+34  2.5334127776921276e+34  -3.0073301887330485e+23  -7.2701573025654784e+23  5.4395592127884163e+40  -6.7575262219037990e+15  -6.2204592727979863e+08  2.5165024861205697e+19  -3.0302998302681639e+25  -1.9371116012513701e+31  3.4317257707619955e+17  8.6838370969493828e+12  1.0379662451521919e+42  -3.2121770708471924e+11  -1.3401004926962148e+18  -9.4585280012504395e+12  -4.2469379898921416e+22  5.7613977885045691e+11  -1.7686618874450478e+15  4.7455961474490434e+07  5.4833694046204027e+18  1.2459005339991011e+12  -1.0086179283761113e+12  -4.0666556805649524e+20  -1.3600894285813182e+19  8.9616657860635410e+19  -1.7127151457263229e+40  1.4762613789147510e+03  1.5806044861110344e+19  1.0930169681893789e+10  -9.4260635171479613e+25  -4.2231692298662006e+18  -5.4951192030902387e+19  1.4323606257543626e+21  -3.1981987910550195e+17  -1.9659511098844872e+10  -1.2662139949464061e+11  2.6403153202618271e+23  7.7563806995194159e+09  -2.2481738632174502e+15  -8.1575838475830169e+36  1.6720595349538806e+16  6.5731278858700356e+23  9.0763208540357137e+05  3.5323322281830264e+22  1.5212907789415598e+08  1.1344722287807550e+07  -4.1358770881951226e+39  -9.1801993014643829e+39  -1.8922236944802269e+03  3.4686542514861787e+04  4.4937656612432056e+14  -1.8249146852015001e+23  6.4497310520860624e+27  2.8238714061326975e+26  -8.0292475066212254e+24  8.7730775021077886e+25  3.0669738906655801e+22  -6.2601258957579146e+42  1.4199108840709335e+27  -3.2438312727366523e+22  3.6875880900916797e+11  -1.2543647779549188e+13  -5.7566128990851048e+25  -1.1650729980867151e+29  -9.2632989420457880e+25  -3.6910053751249268e+23  -9.9353839099531146e+32  -1.5918829371196774e+11  1.9234577480961662e+14  1.4709432068854861e+11  2.6063766971413010e+15  1.0389724453903603e+17  -4.5834861584718580e+09  1.6713525858016147e+41  -1.3125441939282283e+00  -1.1004008745603048e+02  -7.9203356829789107e+02  2.1106646025438943e+40  -7.4288744537212205e+39  2.0443129008572742e+36  2.1990610776876848e+17  1.8733470780593966e+35  -1.9504823739571098e+15  -3.3473595338986829e+33  -4.6623836311197504e+17  5.6204530916226960e+16  3.2416125230640217e+10  -9.6725412358827353e+08  4.1426038220641627e+09  3.0297019119673918e+25  2.4242630634268079e+02  -4.0845394914150829e+09  -8.1697565904890530e+15  6.9913707152166600e+39  -1.9722785478002358e+17  1.1734117273771109e+23  -2.2197752455501998e+20  2.2740934964008455e+09  3.9210477140113427e+17  -4.8363327482446340e+19  8.4126330415044432e+09  -1.3890303011122955e+30  1.2500231645428659e+35  4.1263658973668027e+34  3.0262734006486889e+36  -7.2192749427531385e+09  -5.0318453222452285e+25  -2.1434038013786287e+05  1.2125054821269415e+36  -1.1418281316007951e+13  -1.8307332838515325e+19  1.3022489992637828e+16  4.6859447832790528e+17  9.7272384958248930e+41  7.1669920248640729e+24  -1.2638008311316753e+04  2.5359891737797132e+34  2.9367457230037926e+13  -4.6548340993111956e+30  -4.3527720266812398e+13  1.3588983756033014e+19  2.3862287107984813e+30  -6.4116361214713652e+25  1.5517172793616968e+28  4.7351176554415984e+26  -1.0392670018997559e+08  -2.0334210794776688e+13  2.2009623272226370e+20  8.7485890622797297e+25  2.7711299760851132e+24  3.2208652890272234e+24  -3.4118285601023350e+24  1.4192568040251051e+26  -1.4461489059573562e+15  -8.2948151553107672e+13  -7.4906189570722143e+20  -2.7120463120689126e+20  -1.6623692057793623e+10  2.9328912007450895e+21  -2.3689155721282776e+10  -2.9910853680157286e+17  -1.0799519301213126e+15  -3.7955743073018895e+15  -3.0785936308899290e+15  -7.6370618650573742e+18  1.0234092687682961e+23  5.3559470373965625e+31  -1.4530946683731044e+31  8.2215553906673390e+32  2.1960344549850007e+24  7.8050309517405479e+39  -5.5386607484665078e+18  -9.3284728750281067e+22  -4.2380710476478789e+05  -1.4922579321718482e+04  1.3827944200792983e+07  1.1099581899800508e+21  -1.5588195794654858e+20  1.7304520094721094e+20  -4.2000227776237774e+26  1.7391116889703905e+29  -1.0337735648217300e+08  5.6974330504626523e+13  -2.2237959312284689e+39  -4.2819403529666874e+17  2.6869161862198940e+16  -1.1417765986981292e+22  -1.9278360064540076e+09  4.9898729355944293e+29  7.1615302805864800e+14  -8.9823059606201904e+30  -6.3893101339836258e+13  -1.1076607225826164e+23  -4.918001