<?xml version="1.0"?>
<VTKFile type="UnstructuredGrid"  version="0.1"  >
<UnstructuredGrid>
<Piece  NumberOfPoints="2331" NumberOfCells="4248">
<Points>
<DataArray  type="Float64"  NumberOfComponents="3"  format="ascii">0 0.3 0  0 0 0  0.04999999999999999 0 0  0.0514582251803892 0.02410733605106462 0  0.0558116365147896 0.04786313285751154 0  0.06299675146291706 0.07092097740850717 0  0.07290879486935808 0.09294463440875382 0  0.08540322682126872 0.1136129493462312 0  0.1002978503657798 0.132624531648159 0  0.117375468351841 0.1497021496342203 0  0.1363870506537689 0.1645967731787313 0  0.1570553655912463 0.177091205130642 0  0.1790790225914929 0.187003248537083 0  0.2021368671424885 0.1941883634852104 0  0.2258926639489354 0.1985417748196108 0  0.25 0.2 0  0.2741073360510646 0.1985417748196108 0  0.2978631328575116 0.1941883634852104 0  0.3209209774085071 0.187003248537083 0  0.3429446344087537 0.177091205130642 0  0.3636129493462312 0.1645967731787313 0  0.3826245316481591 0.1497021496342202 0  0.3997021496342202 0.132624531648159 0  0.4145967731787313 0.1136129493462312 0  0.427091205130642 0.09294463440875371 0  0.4370032485370829 0.07092097740850713 0  0.4441883634852104 0.04786313285751155 0  0.4485417748196108 0.02410733605106461 0  0.45 0 0  0.55 0 0  0.5514582251803892 0.02410733605106462 0  0.5558116365147896 0.04786313285751154 0  0.5629967514629171 0.07092097740850717 0  0.5729087948693581 0.09294463440875382 0  0.5854032268212688 0.1136129493462312 0  0.6002978503657798 0.132624531648159 0  0.617375468351841 0.1497021496342203 0  0.6363870506537689 0.1645967731787313 0  0.6570553655912463 0.177091205130642 0  0.6790790225914929 0.187003248537083 0  0.7021368671424885 0.1941883634852104 0  0.7258926639489354 0.1985417748196108 0  0.75 0.2 0  0.7741073360510646 0.1985417748196108 0  0.7978631328575116 0.1941883634852104 0  0.8209209774085071 0.187003248537083 0  0.8429446344087537 0.177091205130642 0  0.8636129493462312 0.1645967731787313 0  0.8826245316481591 0.1497021496342202 0  0.8997021496342202 0.132624531648159 0  0.9145967731787312 0.1136129493462312 0  0.927091205130642 0.09294463440875371 0  0.9370032485370829 0.07092097740850713 0  0.9441883634852104 0.04786313285751155 0  0.9485417748196108 0.02410733605106461 0  0.95 0 0  1 0 0  1 0.3 0  0.9758926639489353 0.3014582251803892 0  0.9521368671424885 0.3058116365147896 0  0.9290790225914928 0.3129967514629171 0  0.9070553655912461 0.3229087948693581 0  0.8863870506537688 0.3354032268212687 0  0.867375468351841 0.3502978503657798 0  0.8502978503657798 0.367375468351841 0  0.8354032268212687 0.3863870506537689 0  0.822908794869358 0.4070553655912464 0  0.8129967514629171 0.4290790225914929 0  0.8058116365147896 0.4521368671424885 0  0.8014582251803892 0.4758926639489354 0  0.8 0.4999999999999999 0  0.8014582251803892 0.5241073360510646 0  0.8058116365147896 0.5478631328575115 0  0.8129967514629171 0.5709209774085071 0  0.8229087948693581 0.5929446344087538 0  0.8354032268212688 0.6136129493462312 0  0.8502978503657798 0.632624531648159 0  0.867375468351841 0.6497021496342202 0  0.8863870506537689 0.6645967731787313 0  0.9070553655912463 0.677091205130642 0  0.9290790225914929 0.6870032485370829 0  0.9521368671424885 0.6941883634852104 0  0.9758926639489354 0.6985417748196108 0  1 0.7 0  1 1 0  0.95 1 0  0.9485417748196108 0.9758926639489353 0  0.9441883634852104 0.9521368671424885 0  0.9370032485370829 0.9290790225914928 0  0.927091205130642 0.9070553655912463 0  0.9145967731787312 0.8863870506537688 0  0.8997021496342201 0.8673754683518409 0  0.882624531648159 0.8502978503657798 0  0.863612949346231 0.8354032268212686 0  0.8429446344087537 0.822908794869358 0  0.8209209774085071 0.8129967514629171 0  0.7978631328575114 0.8058116365147896 0  0.7741073360510646 0.8014582251803892 0  0.75 0.8 0  0.7258926639489353 0.8014582251803892 0  0.7021368671424885 0.8058116365147896 0  0.6790790225914928 0.8129967514629171 0  0.6570553655912461 0.8229087948693581 0  0.6363870506537688 0.8354032268212688 0  0.617375468351841 0.8502978503657798 0  0.6002978503657798 0.867375468351841 0  0.5854032268212687 0.8863870506537689 0  0.572908794869358 0.9070553655912463 0  0.5629967514629171 0.9290790225914929 0  0.5558116365147896 0.9521368671424885 0  0.5514582251803892 0.9758926639489355 0  0.55 0.9999999999999999 0  0.45 0.9999999999999999 0  0.4485417748196108 0.9758926639489353 0  0.4441883634852104 0.9521368671424885 0  0.4370032485370829 0.9290790225914928 0  0.427091205130642 0.9070553655912463 0  0.4145967731787313 0.8863870506537688 0  0.3997021496342201 0.8673754683518409 0  0.382624531648159 0.8502978503657798 0  0.363612949346231 0.8354032268212686 0  0.3429446344087536 0.822908794869358 0  0.3209209774085071 0.8129967514629171 0  0.2978631328575115 0.8058116365147896 0  0.2741073360510646 0.8014582251803892 0  0.25 0.8 0  0.2258926639489353 0.8014582251803892 0  0.2021368671424885 0.8058116365147896 0  0.1790790225914928 0.8129967514629171 0  0.1570553655912462 0.8229087948693581 0  0.1363870506537688 0.8354032268212688 0  0.117375468351841 0.8502978503657798 0  0.1002978503657797 0.867375468351841 0  0.08540322682126869 0.8863870506537689 0  0.07290879486935797 0.9070553655912463 0  0.06299675146291703 0.9290790225914929 0  0.05581163651478957 0.9521368671424885 0  0.0514582251803892 0.9758926639489355 0  0.04999999999999999 0.9999999999999999 0  0 1 0  -0 0.7000000000000001 0  0.0241073360510646 0.6985417748196108 0  0.04786313285751161 0.6941883634852104 0  0.07092097740850711 0.6870032485370829 0  0.09294463440875372 0.677091205130642 0  0.1136129493462312 0.6645967731787312 0  0.1326245316481591 0.6497021496342202 0  0.1497021496342202 0.632624531648159 0  0.1645967731787313 0.6136129493462312 0  0.177091205130642 0.5929446344087537 0  0.187003248537083 0.5709209774085071 0  0.1941883634852104 0.5478631328575115 0  0.1985417748196108 0.5241073360510646 0  0.2 0.5 0  0.1985417748196108 0.4758926639489353 0  0.1941883634852104 0.4521368671424885 0  0.1870032485370829 0.4290790225914928 0  0.177091205130642 0.4070553655912463 0  0.1645967731787313 0.3863870506537688 0  0.1497021496342202 0.3673754683518409 0  0.132624531648159 0.3502978503657798 0  0.113612949346231 0.3354032268212686 0  0.09294463440875361 0.322908794869358 0  0.07092097740850711 0.3129967514629171 0  0.04786313285751148 0.3058116365147896 0  0.02410733605106464 0.3014582251803892 0  0.6985417748196108 0.5241073360510646 0  0.7 0.5 0  0.6985417748196108 0.4758926639489353 0  0.6941883634852104 0.4521368671424885 0  0.6870032485370829 0.4290790225914928 0  0.677091205130642 0.4070553655912463 0  0.6645967731787312 0.3863870506537688 0  0.6497021496342201 0.3673754683518409 0  0.632624531648159 0.3502978503657798 0  0.613612949346231 0.3354032268212686 0  0.5929446344087537 0.322908794869358 0  0.5709209774085071 0.3129967514629171 0  0.5478631328575114 0.3058116365147896 0  0.5241073360510646 0.3014582251803892 0  0.4999999999999999 0.3 0  0.4758926639489353 0.3014582251803892 0  0.4521368671424885 0.3058116365147896 0  0.4290790225914928 0.3129967514629171 0  0.4070553655912462 0.3229087948693581 0  0.3863870506537688 0.3354032268212687 0  0.367375468351841 0.3502978503657798 0  0.3502978503657798 0.367375468351841 0  0.3354032268212687 0.3863870506537689 0  0.322908794869358 0.4070553655912464 0  0.3129967514629171 0.4290790225914929 0  0.3058116365147896 0.4521368671424885 0  0.3014582251803892 0.4758926639489354 0  0.3 0.4999999999999999 0  0.3014582251803892 0.5241073360510646 0  0.3058116365147896 0.5478631328575115 0  0.3129967514629171 0.5709209774085071 0  0.3229087948693581 0.5929446344087538 0  0.3354032268212687 0.6136129493462312 0  0.3502978503657798 0.632624531648159 0  0.367375468351841 0.6497021496342202 0  0.3863870506537689 0.6645967731787313 0  0.4070553655912463 0.677091205130642 0  0.4290790225914929 0.6870032485370829 0  0.4521368671424885 0.6941883634852104 0  0.4758926639489354 0.6985417748196108 0  0.4999999999999999 0.7 0  0.5241073360510646 0.6985417748196108 0  0.5478631328575116 0.6941883634852104 0  0.5709209774085071 0.6870032485370829 0  0.5929446344087537 0.677091205130642 0  0.6136129493462312 0.6645967731787312 0  0.6326245316481591 0.6497021496342202 0  0.6497021496342202 0.632624531648159 0  0.6645967731787312 0.6136129493462312 0  0.677091205130642 0.5929446344087537 0  0.6870032485370829 0.5709209774085071 0  0.6941883634852104 0.5478631328575115 0  0 0.15 0  1 0.15 0  1 0.85 0  0 0.8500000000000001 0  0 0.075 0  1 0.075 0  1 0.925 0  0 0.925 0  0.5 0.8127595604293815 0  0.5069440078039168 0.190422209288238 0  0.25 0.3127595604293815 0  0.756944007803917 0.3095777907117619 0  0.756944007803917 0.6904222092882382 0  0.25 0.6872404395706185 0  0 0.225 0  0.4255768646051012 0.2241073097134061 0  1 0.7749999999999999 0  0.6773391559270888 0.2766774022734219 0  1 0.225 0  0.6755768646051011 0.7241073097134062 0  0 0.7750000000000001 0  0.5818971135297744 0.2287925518358889 0  0.8318971135297746 0.728792551835889 0  0.1659156081861886 0.7301636995921477 0  0.08376842746533225 0.2299656297760495 0  0.4236002201977974 0.7746535834185855 0  0.0840843918138115 0.7698363004078523 0  0.3340843918138113 0.7301636995921477 0  0.3340843918138114 0.2698363004078523 0  0.9159156081861887 0.2301636995921477 0  0.5840843918138116 0.7698363004078522 0  0.1659156081861887 0.2698363004078523 0  0.9162315725346678 0.7700343702239506 0  0.8340843918138114 0.2698363004078523 0  0.75 0.6146645247768686 0  0.5 0.1125158665330878 0  0.75 0.3874841334669124 0  0.2504983345544904 0.6122915843562002 0  0.2504983345544902 0.3877084156437999 0  0.5 0.8879783056303169 0  0.7005361650220154 0.3333055947145943 0  0.70416808765371 0.6599554817221275 0  0.449930214263529 0.1678187287522426 0  0.2247310981387008 0.7415600637745463 0  0.5155081196221678 0.7563797802146907 0  0.2752689018612993 0.2584399362254537 0  0.05605196690611226 0.8246131191226815 0  0.9439480330938878 0.1
[...]
<PointData  Scalars="Temperature"> 
<DataArray  type="Float64"  Name="Temperature"  format="ascii">3.6228597101522773e+01  3.8606266356707195e+01  3.8597555660387684e+01  3.8551143648394330e+01  3.8419724577652076e+01  3.8211070932348235e+01  3.7925339312144978e+01  3.7561154389756908e+01  3.7122641127098966e+01  3.6605055043868809e+01  3.5996207265587053e+01  3.5303530695535862e+01  3.4545727765152193e+01  3.3737367445495416e+01  3.2893347004994482e+01  3.2039852527474849e+01  3.1189088586983885e+01  3.0350052793773564e+01  2.9550402822127769e+01  2.8785242481128055e+01  2.8085481249417008e+01  2.7462277313026394e+01  2.6920924031008212e+01  2.6488104709791084e+01  2.6155608777759305e+01  2.5926822541985089e+01  2.5776462435496967e+01  2.5698861964319732e+01  2.5674504912242817e+01  2.5298698312556166e+01  2.5268281732683047e+01  2.5174017530202420e+01  2.5003473188016862e+01  2.4757594924518919e+01  2.4428310911872735e+01  2.4033991628084827e+01  2.3601264744593227e+01  2.3145700831642827e+01  2.2693358149535861e+01  2.2266117944322684e+01  2.1878677387328338e+01  2.1540075774861641e+01  2.1252499552285173e+01  2.1012391303718942e+01  2.0814608983737340e+01  2.0656440903926629e+01  2.0529870985697222e+01  2.0431682971260699e+01  2.0357694213298071e+01  2.0302806890773862e+01  2.0263344448177449e+01  2.0235372859580941e+01  2.0216342145234790e+01  2.0203720112805133e+01  2.0196283012110229e+01  2.0193753907960446e+01  2.0191660326926545e+01  2.0284165241287379e+01  2.0296335185993904e+01  2.0331135315659441e+01  2.0385813325078004e+01  2.0455328758648374e+01  2.0533834236048456e+01  2.0612256788265920e+01  2.0684232328049340e+01  2.0740298908926622e+01  2.0776792008084733e+01  2.0786760413752347e+01  2.0775513372033931e+01  2.0745742191344544e+01  2.0703947078655609e+01  2.0656883136653196e+01  2.0605077387306480e+01  2.0549345664933423e+01  2.0491292425465829e+01  2.0429779463389696e+01  2.0367041409675629e+01  2.0307384088037431e+01  2.0251253484466414e+01  2.0202728838718951e+01  2.0162964573532744e+01  2.0133736015745985e+01  2.0115846822625766e+01  2.0109522182952752e+01  2.0040239582206304e+01  2.0040607213449100e+01  2.0042067794727114e+01  2.0046214247759192e+01  2.0052976671303718e+01  2.0062754878077840e+01  2.0076484764661441e+01  2.0095216353222909e+01  2.0120231717215876e+01  2.0153075505512106e+01  2.0195499476260363e+01  2.0248609186099273e+01  2.0312008742265927e+01  2.0386474086527027e+01  2.0469586753757973e+01  2.0562519810070810e+01  2.0661388144447137e+01  2.0764570716109340e+01  2.0864871295778794e+01  2.0958286485155234e+01  2.1034995269476092e+01  2.1091864921023866e+01  2.1119824396269863e+01  2.1124360829360715e+01  2.1106944139194024e+01  2.1077753320322426e+01  2.1053084611582431e+01  2.1043114525436444e+01  2.1114663231390722e+01  2.1143637009834372e+01  2.1222044741094589e+01  2.1347606879316317e+01  2.1522072737961235e+01  2.1749756247819160e+01  2.2026411994713232e+01  2.2352467285189256e+01  2.2716078917668742e+01  2.3114210311689313e+01  2.3523969643563920e+01  2.3926128928179740e+01  2.4300951646023407e+01  2.4622610272877733e+01  2.4878603248301474e+01  2.5052421638278158e+01  2.5144198617650723e+01  2.5152541666740543e+01  2.5080217941388860e+01  2.4944491974144150e+01  2.4753075060627811e+01  2.4520503143209492e+01  2.4270668249093934e+01  2.4028222248754183e+01  2.3818391879215334e+01  2.3675472574243191e+01  2.3617515325068823e+01  2.3617946220263363e+01  2.5892598417065567e+01  2.5901154228221571e+01  2.5929394641946775e+01  2.5974500693538083e+01  2.6036967627292434e+01  2.6119375209620742e+01  2.6230561223934359e+01  2.6384642103055434e+01  2.6592544789298870e+01  2.6860254306594282e+01  2.7206275886844839e+01  2.7624314052948581e+01  2.8111416850616493e+01  2.8647235329346291e+01  2.9220861493879873e+01  2.9823263068465614e+01  3.0457445057995940e+01  3.1132857768872459e+01  3.1857532978881643e+01  3.2613592927638912e+01  3.3381571562639628e+01  3.4124078154533613e+01  3.4810596458341642e+01  3.5401006029020770e+01  3.5846094517709652e+01  3.6129978212137168e+01  2.0733035232131058e+01  2.0780564531470564e+01  2.0845920010643116e+01  2.0932119647362644e+01  2.1044806931709015e+01  2.1193618202330043e+01  2.1389199818181023e+01  2.1639519824676448e+01  2.1956292304054660e+01  2.2335296934383404e+01  2.2782710501392344e+01  2.3299675339605212e+01  2.3877060493053680e+01  2.4510041300261889e+01  2.5186257753316934e+01  2.5894929644614315e+01  2.6612216780720942e+01  2.7323755863491357e+01  2.7988509642135327e+01  2.8591504949547858e+01  2.9079423410009017e+01  2.9438128519645772e+01  2.9633141153176442e+01  2.9668381771660901e+01  2.9528547814875200e+01  2.9247359759047178e+01  2.8843008089257786e+01  2.8353598403934114e+01  2.7816349203297918e+01  2.7255257365363924e+01  2.6691463936380160e+01  2.6115984863788011e+01  2.5550101809614656e+01  2.4992021251652389e+01  2.4446781113060080e+01  2.3927673250155053e+01  2.3433396319042412e+01  2.2983574112007059e+01  2.2575920494115241e+01  2.2219567830710748e+01  2.1908728269216713e+01  2.1643786322953492e+01  2.1418651030855756e+01  2.1233200513882881e+01  2.1078053392920342e+01  2.0951341737078039e+01  2.0851260275616017e+01  2.0775990554893369e+01  2.0724512044236238e+01  2.0696275300529130e+01  2.0689310113999440e+01  2.0702412119574422e+01  3.7573096047936886e+01  2.0238268133448408e+01  2.0070682355582214e+01  2.4699170075037358e+01  3.8304497820059304e+01  2.0206173333490497e+01  2.0049299583187192e+01  2.3971099364832536e+01  2.1607003213132000e+01  2.5177603347672996e+01  3.1361984478159005e+01  2.1077339706306194e+01  2.0497481051800172e+01  2.5439077650776209e+01  3.6730176625034261e+01  2.7035227676019922e+01  2.0094678892554889e+01  2.1891356252379747e+01  2.0267124400463011e+01  2.0750029794112908e+01  2.5466443332237837e+01  2.3572459951113125e+01  2.0287468518215306e+01  2.5612194186652058e+01  3.6059301917094544e+01  2.2494175709645326e+01  2.5489427306448366e+01  2.3982324419664675e+01  2.9492278635485906e+01  2.0363928327320487e+01  2.1170781617305753e+01  3.3919468087708715e+01  2.0136424792373006e+01  2.0661077833240928e+01  2.0579551009067206e+01  2.5422400205392421e+01  2.0971705215290456e+01  2.6453383724034509e+01  3.0450223475409757e+01  2.1322223492620388e+01  2.1432782483226482e+01  2.0662541523150015e+01  2.6334476975669116e+01  2.5134057252579701e+01  2.1668111680734867e+01  3.1110993739776180e+01  2.4988121757407892e+01  2.0283845536282307e+01  3.7049398550257209e+01  2.0092147013750143e+01  2.5606504376563819e+01  2.0545505073547808e+01  2.1348624275740857e+01  2.1947342855141841e+01  2.5991852027849173e+01  3.2553024602440203e+01  2.4922660757345376e+01  2.9992255083068251e+01  2.1234080014995886e+01  2.5468459479080956e+01  2.0853093265259925e+01  2.0664182557419764e+01  2.9564141735443219e+01  2.7605788952791624e+01  2.1076264633291451e+01  2.1150398744003894e+01  3.2565409028773111e+01  2.4635632116325045e+01  2.4213709203495128e+01  2.0449637715318943e+01  2.0763146625583737e+01  2.2598286292315116e+01  2.8042131180320183e+01  2.8678759149493157e+01  2.0893236278740723e+01  2.1036908936057113e+01  2.2545455279351973e+01  2.0399588600433841e+01  2.0931861225752524e+01  2.0752073994632667e+01  2.5484803887321135e+01  2.8611974709183052e+01  2.3158622683984923e+01  2.3335172574263371e+01  2.4526692315473948e+01  2.0200901337917482e+01  2.0199975988451428e+01  2.2003141523634461e+01  3.5229829619690001e+01  2.5704167162030640e+01  2.0431869858308833e+01  2.5383167977488615e+01  3.4896783448280345e+01  2.5800099855411318e+01  2.0300388173536017e+01  2.0514378448536000e+01  2.0117287771649966e+01  3.6215696381707211e+01  2.0244416342836775e+01  2.0068172980322910e+01  3.7728487262127430e+01  2.4534724892408679e+01  2.0834131683795363e+01  2.0380833214724657e+01  2.4762358007649897e+01  2.0619012272565449e+01  2.1060941128833832e+01  2.4194051365936907e+01  3.3734686614963955e+01  2.0364841281015138e+01  2.9115342571250700e+01  2.6003363144797614e+01  2.5140081846816440e+01  3.6381952951046102e+01  2.0131909028555782e+01  2.6417043820347736e+01  3.1475042591510519e+01  2.1342631058830374e+01  2.0297848864537986e+01  3.0511935762468497e+01  2.5688594090717899e+01  2.1821139535815526e+01  2.1969274916005205e+01  2.2513397444387977e+01  2.6614600501369662e+01  2.0851010046090419e+01  2.7543862569511997e+01  2.0713816668107818e+01  2.1596741551947130e+01  2.2438761396846733e+01  2.3557936308055620e+01  2.1431671598525934e+01  2.0306104284197470e+01  2.3216078024103730e+01  2.5230487098924790e+01  2.9861685101621642e+01  2.4013642305116221e+01  3.3685703999114025e+01  2.0601016637380912e+01  2.1285866886346788e+01  2.6004147470863842e+01  3.6685983876089544e+01  2.0702355827944732e+01  2.0293206837487805e+01  2.5365323864137661e+01  2.1437471192397044e+01  2.5093472608562795e+01  2.0253824142930888e+01  2.0842415493615920e+01  2.0089591961841823e+01  2.6045886902518944e+01  2.1114842320054354e+01  2.1206531979123213e+01  2.5576068069222639e+01  3.7148447740001991e+01  2.0582043268248714e+01  2.0656984743593615e+01  2.0532904966948564e+01  2.7106478431678113e+01  3.0640723069487411e+01  2.5850936326324213e+01  2.9916366370831653e+01  2.5830263992103646e+01  2.5730328894767972e+01  2.5174799433275467e+01  2.0840603434982704e+01  2.1015043099144993e+01  2.1183027087908961e+01  2.1161771252681490e+01  2.1358940133113229e+01  2.0082981922720517e+01  2.5763528949041905e+01  2.0059186491297080e+01  2.0277098217860800e+01  3.6383788903031245e+01  2.0195448934355074e+01  3.8527662761012223e+01  2.0221456794689008e+01  2.0219613506189759e+01  3.7971893197867281e+01  2.0042622245394583e+01  2.3717216729917968e+01  2.0104751694472515e+01  2.4314146436936699e+01  2.4166112624153229e+01  2.9777226264912112e+01  2.6848349099848271e+01  2.5540566841849454e+01  3.0324298219011048e+01  2.1626318219807345e+01  2.0152402022044225e+01  2.4562298836785548e+01  3.2397847557681679e+01  2.0443522598033859e+01  2.0502970894088822e+01  2.2021241603289074e+01  2.0101406307517284e+01  2.1393026212732529e+01  2.4837561419787917e+01  2.5971238408038040e+01  3.1243499109541322e+01  3.4853515211912466e+01  2.3053839724637815e+01  2.4825940546343226e+01  2.1078031266910447e+01  2.0945128162741430e+01  2.1541031261965017e+01  2.0727923710342903e+01  2.0770904346453865e+01  2.0055622054881784e+01  3.8109050585263390e+01  3.5693102328689413e+01  2.0369375982747016e+01  2.4952206128090513e+01  3.2276179321089522e+01  2.0521013607266621e+01  2.4163656406798896e+01  2.0631735667525984e+01  2.0354212414266396e+01  2.1461579691505531e+01  2.7831082956798177e+01  2.0883104442394426e+01  2.2820957631690035e+01  3.8415537693654493e+01  2.0205098767743095e+01  2.0046177593860509e+01  2.3841727143724992e+01  2.2914517245845797e+01  2.0671771249789042e+01  2.6314672469514221e+01  2.4742512835049677e+01  2.4901767785199091e+01  2.0281280595561949e+01  2.0253487601050232e+01  2.3501211004213573e+01  3.6952468102967615e+01  3.6575276699292019e+01  3.7312437826049440e+01  2.6954182097385388e+01  2.6653935492798098e+01  3.5719668326332354e+01  2.1877805948067184e+01  2.5996816436275800e+01  2.5200609571364780e+01  2.0455630475143138e+01  2.1681449858668106e+01  2.1111256659783841e+01  2.8325101868618358e+01  2.0986715640732715e+01  2.0078281033855855e+01  2.0711155208748277e+01  2.0583042121670747e+01  2.3704981100300987e+01  2.1083170618274217e+01  2.0665716058687778e+01  2.5592093149182954e+01  2.5370235339239024e+01  2.0774086253489880e+01  2.0867846373021045e+01  2.8999597860528695e+01  2.9471064265090774e+01  2.1613128566779935e+01  2.0236625546879079e+01  2.1159599014802595e+01  2.2485139718384495e+01  3.0265351854458931e+01  2.3694824438560712e+01  3.3107801741012906e+01  2.4495740835395804e+01  2.4866785048848815e+01  2.5454173673653919e+01  3.0823955194451628e+01  3.1647653378543847e+01  2.5168111027969417e+01  2.1197714641037333e+01  2.1151085689511817e+01  3.0637769365885532e+01  2.5803755698219305e+01  2.9718422607043092e+01  3.2933975348960928e+01  2.4750122605165991e+01  2.6330142343123526e+01  2.1397953780464206e+01  2.0725498811671606e+01  2.0693201751789683e+01  2.8133226567536617e+01  2.8174411943259891e+01  3.4536869011079609e+01  2.0652034448787244e+01  2.0594145993682996e+01  2.0528124252051196e+01  2.7350005696751300e+01  2.0802598812275338e+01  2.1663091107359609e+01  2.7345996909944621e+01  2.1873095607670816e+01  2.2173863550711030e+01  2.1267481513990731e+01  2.5552206904734501e+01  2.5393023204219336e+01  2.1510634703302664e+01  2.2146284581651230e+01  2.0110687805173569e+01  3.5659241785934377e+01  2.0740799723901336e+01  2.4274783077844955e+01  2.0219509570264961e+01  2.0169814987456061e+01  2.0898595782037564e+01  2.0706765275685989e+01  2.0579429731477212e+01  2.5241689639605223e+01  2.8369993798366597e+01  2.8844469990111211e+01  2.0936865811945051e+01  2.1021285093105252e+01  2.3048306890671501e+01  2.3697220476271632e+01  2.5170591008017432e+01  2.3080042542909784e+01  2.0440091163029070e+01  2.0621226689772985e+01  2.0327148026385103e+01  2.5223415275309112e+01  2.4185465566403209e+01  2.0040414226615248e+01  2.0192649681538107e+01  3.8602606100359637e+01  2.3617128222105379e+01  2.5732017450353609e+01  2.3011763175634133e+01  2.8854983897904180e+01  2.2202175440674921e+01  2.0804587931043613e+01  2.0517796524231887e+01  2.5255956555877756e+01  2.5683605444817360e+01  3.0053893673535736e+01  2.0864214181597394e+01  2.0250248954913044e+01  2.0219489071140487e+01  2.0172611156192104e+01  2.0253243611941137e+01  2.1157609794069394e+01  2.9225770193980953e+01  2.6813751322486727e+01  2.1094663746124112e+01  2.1051877098310303e+01  2.1232489175614461e+01  2.1007922015980235e+01  2.0620786604107284e+01  2.7679376035108756e+01  2.7356552230664480e+01  3.4299806879609946e+01  2.9661878481723033e+01  2.2880107285611938e+01  3.5489613390826662e+01  2.5773487172179635e+01  2.3595711518249690e+01  2.0917105310599712e+01  3.6541006686526735e+01  2.6508323713207325e+01  2.0437715146983368e+01  2.0465344452033751e+01  2.0105414371545866e+01  2.5388898344972098e+01  3.3327724679193963e+01  2.4302615972278105e+01  2.5428000867054674e+01  2.5602316918589199e+01  2.5517427016299703e+01  2.8891184551523651e+01  2.0798663209849639e+01  3.7362896427535340e+01  2.0156884543230063e+01  3.0023019042804759e+01  2.2344786260525574e+01  2.5285037949834152e+01  2.0265844181549465e+01  2.0516625060006195e+01  2.1760156262191895e+01  2.9360285151267885e+01  2.1089537471011102e+01  3.2193985638209845e+01  2.0805033673562221e+01  2.0102446874048479e+01  2.5933427987090962e+01  2.2257264057464429e+01  2.9386611783854907e+01  2.0405785926986756e+01  2.5449438953617083e+01  2.0196963632716319e+01  2.3687652493655747e+01  3.8547769372325689e+01  2.0042083992977393e+01  2.4846932011899472e+01  2.0969980945500090e+01  2.0187752811585565e+01  2.0602432664897137e+01  2.5812503047344556e+01  2.2076101411606672e+01  2.0356177582004335e+01  2.1143438631617137e+01  3.5962624041003572e+01  2.6142558006436516e+01  2.5684213801020356e+01  2.5274780653476363e+01  2.0788783259863074e+01  2.3264927099795905e+01  2.3783400059296067e+01  2.5861042034084285e+01  2.0309005139258648e+01  2.5525311660737344e+01  2.0810377968575256e+01  2.4694630477341342e+01  3.1583350110747951e+01  2.6414106458768877e+01  2.0363908309095084e+01  3.1906579132777129e+01  2.1786118374900081e+01  2.0331950294133534e+01  2.0467341012159217e+01  2.0454338588075377e+01  2.1266405006365979e+01  2.1259591971722333e+01  2.0118518334267144e+01  2.5073909391773519e+01  3.3182675375232613e+01  2.4153420193387209e+01  2.1478709004791071e+01  2.0685222687565407e+01  2.6307431109963204e+01  2.5312589950609794e+01  2.0089769424169528e+01  3.0945635895181944e+01  2.5259011968395065e+01  2.5357745752889098e+01  2.1102331352165340e+01  2.5615201796671606e+01  2.4788834460092126e+01  3.4132614722570786e+01  2.0328499797301674e+01  2.4967269711427654e+01  2.5658564888543985e+01  2.0321955769778981e+01  2.0272868409458670e+01  2.0278845679617518e+01  2.0110146453317942e+01  3.7010365156397540e+01  2.2893544506007270e+01  3.1242211008873500e+01  2.1225185479166043e+01  2.5050998092668838e+01  2.4017034709635112e+01  2.2637940676974953e+01  2.6199915025243754e+01  3.0078127893782685e+01  3.1927404077175211e+01  2.0499950990794041e+01  2.4346126937928666e+01  2.0245600657328428e+01  2.0278703617913646e+01  2.6108251134029882e+01  2.2301833678284495e+01  3.5149437619280512e+01  2.0414827630655161e+01  3.4456807749080603e+01  3.5016701741983582e+01  2.0131193693188539e+01  2.0111751441104079e+01  3.6237097531800096e+01  3.6347534447854649e+01  2.8250327281361205e+01  2.2226382222207594e+01  2.0971655375359191e+01  2.0883740206177283e+01  2.2298930260880013e+01  2.1844460042962869e+01  2.1141594913206760e+01  2.0081406731892422e+01  2.1232086320855249e+01  2.2810755092463957e+01  3.0075257008711141e+01  2.9150964323385889e+01  2.0802807425861804e+01  2.0805699158877299e+01  2.1135210717695955e+01  2.2151890881276344e+01  2.0594086248226436e+01  2.9758019187428175e+01  2.5996645386628565e+01  2.5146264248482286e+01  2.6619942308151181e+01  2.6330835129264706e+01  3.0988976223187752e+01  2.0064754662168081e+01  3.7778243579094806e+01  3.7596395065395974e+01  3.7607451906602591e+01  2.0077199937577504e+01  2.0062642255698659e+01  2.0277925910176041e+01  2.5031569863449349e+01  2.0371885235348358e+01  2.7151277160314898e+01  2.0525797930025817e+01  2.0262983185428968e+01  2.0241474879970060e+01  2.4772503289296935e+01  2.4504528151819702e+01  2.4650407388120595e+01  2.1105658705141671e+01  3.7918691243230327e+01  2.4363015044765085e+01  2.0227328107380657e+01  2.0150534901801276e+01  2.4527667976499128e+01  2.1512751049076702e+01  2.3922995393394832e+01  3.0726386206452801e+01  2.6072961343628730e+01  2.0281544578745940e+01  2.5856850545571007e+01  2.0706215533103578e+01  2.0411699774381713e+01  2.0435826159548167e+01  2.0320286410764144e+01  3.2918411367558924e+01  2.1498574264186665e+01  3.6200799188359746e+01  2.0351389387295271e+01  2.5087622633759093e+01  2.0396385537334680e+01  2.6732566675963490e+01  2.4541926787294443e+01  2.0069019250016307e+01  2.1738662467997500e+01  3.6018222233668553e+01  2.0509211273959551e+01  2.0192413177901074e+01  2.0905822464554280e+01  2.9257098754929171e+01  2.4363557243498143e+01  2.0728881572984811e+01  2.1801621804242604e+01  2.1320521478898414e+01  2.1102526770229538e+01  3.3190980413596272e+01  2.8577985070077904e+01  2.3743770310450902e+01  2.1271703550329242e+01  2.0592578252839285e+01  2.0986035774251899e+01  2.1324431822611913e+01  2.1373085724032101e+01  2.5139897775732877e+01  2.6099355323943136e+01  2.4086921402171381e+01  2.0286194080176191e+01  2.5817348309401520e+01  2.0399767206015763e+01  3.0990836947212955e+01  2.5646121748494274e+01  2.5746447556347984e+01  2.5645259240724968e+01  2.6224372477214448e+01  2.0725515309935005e+01  2.2682673374370491e+01  2.0659963627778993e+01  2.0668762793387994e+01  2.0588552551224762e+01  2.1652659932896658e+01  2.0122689727879564e+01  2.0318484069887152e+01  2.2035499829127186e+01  3.6222462187465787e+01  3.6751494629915975e+01  3.4318013469675307e+01  2.1768205340318133e+01  2.4515437096574860e+01  2.4148012362181319e+01  2.0778493833159565e+01  2.1012018266329839e+01  3.3531707357633024e+01  2.8910371452264378e+01  2.0134684673434595e+01  2.6096368678112150e+01  2.6821500980052985e+01  2.0578838780315905e+01  3.2806832108104025e+01  2.0909993036189935e+01  2.7178065258608616e+01  2.0809682497759642e+01  2.7438994342730563e+01  2.2435324924505604e+01  2.2617685988893399e+01  2.1141196636726203e+01  2.9915240371865380e+01  2.1311724106994625e+01  2.0712494189212137e+01  2.1169743861752522e+01  2.1064313769997536e+01  2.9564060390668192e+01  2.1408220993066067e+01  2.1864606205168656e+01  2.8026400437991221e+01  2.2054260376458778e+01  2.0711149351524000e+01  2.6791301354090514e+01  2.0061081249041038e+01  3.7855904816115135e+01  2.626