<?xml version="1.0"?>
<VTKFile type="UnstructuredGrid"  version="0.1"  >
<UnstructuredGrid>
<Piece  NumberOfPoints="2331" NumberOfCells="4248">
<Points>
<DataArray  type="Float64"  NumberOfComponents="3"  format="ascii">0 0.3 0  0 0 0  0.04999999999999999 0 0  0.0514582251803892 0.02410733605106462 0  0.0558116365147896 0.04786313285751154 0  0.06299675146291706 0.07092097740850717 0  0.07290879486935808 0.09294463440875382 0  0.08540322682126872 0.1136129493462312 0  0.1002978503657798 0.132624531648159 0  0.117375468351841 0.1497021496342203 0  0.1363870506537689 0.1645967731787313 0  0.1570553655912463 0.177091205130642 0  0.1790790225914929 0.187003248537083 0  0.2021368671424885 0.1941883634852104 0  0.2258926639489354 0.1985417748196108 0  0.25 0.2 0  0.2741073360510646 0.1985417748196108 0  0.2978631328575116 0.1941883634852104 0  0.3209209774085071 0.187003248537083 0  0.3429446344087537 0.177091205130642 0  0.3636129493462312 0.1645967731787313 0  0.3826245316481591 0.1497021496342202 0  0.3997021496342202 0.132624531648159 0  0.4145967731787313 0.1136129493462312 0  0.427091205130642 0.09294463440875371 0  0.4370032485370829 0.07092097740850713 0  0.4441883634852104 0.04786313285751155 0  0.4485417748196108 0.02410733605106461 0  0.45 0 0  0.55 0 0  0.5514582251803892 0.02410733605106462 0  0.5558116365147896 0.04786313285751154 0  0.5629967514629171 0.07092097740850717 0  0.5729087948693581 0.09294463440875382 0  0.5854032268212688 0.1136129493462312 0  0.6002978503657798 0.132624531648159 0  0.617375468351841 0.1497021496342203 0  0.6363870506537689 0.1645967731787313 0  0.6570553655912463 0.177091205130642 0  0.6790790225914929 0.187003248537083 0  0.7021368671424885 0.1941883634852104 0  0.7258926639489354 0.1985417748196108 0  0.75 0.2 0  0.7741073360510646 0.1985417748196108 0  0.7978631328575116 0.1941883634852104 0  0.8209209774085071 0.187003248537083 0  0.8429446344087537 0.177091205130642 0  0.8636129493462312 0.1645967731787313 0  0.8826245316481591 0.1497021496342202 0  0.8997021496342202 0.132624531648159 0  0.9145967731787312 0.1136129493462312 0  0.927091205130642 0.09294463440875371 0  0.9370032485370829 0.07092097740850713 0  0.9441883634852104 0.04786313285751155 0  0.9485417748196108 0.02410733605106461 0  0.95 0 0  1 0 0  1 0.3 0  0.9758926639489353 0.3014582251803892 0  0.9521368671424885 0.3058116365147896 0  0.9290790225914928 0.3129967514629171 0  0.9070553655912461 0.3229087948693581 0  0.8863870506537688 0.3354032268212687 0  0.867375468351841 0.3502978503657798 0  0.8502978503657798 0.367375468351841 0  0.8354032268212687 0.3863870506537689 0  0.822908794869358 0.4070553655912464 0  0.8129967514629171 0.4290790225914929 0  0.8058116365147896 0.4521368671424885 0  0.8014582251803892 0.4758926639489354 0  0.8 0.4999999999999999 0  0.8014582251803892 0.5241073360510646 0  0.8058116365147896 0.5478631328575115 0  0.8129967514629171 0.5709209774085071 0  0.8229087948693581 0.5929446344087538 0  0.8354032268212688 0.6136129493462312 0  0.8502978503657798 0.632624531648159 0  0.867375468351841 0.6497021496342202 0  0.8863870506537689 0.6645967731787313 0  0.9070553655912463 0.677091205130642 0  0.9290790225914929 0.6870032485370829 0  0.9521368671424885 0.6941883634852104 0  0.9758926639489354 0.6985417748196108 0  1 0.7 0  1 1 0  0.95 1 0  0.9485417748196108 0.9758926639489353 0  0.9441883634852104 0.9521368671424885 0  0.9370032485370829 0.9290790225914928 0  0.927091205130642 0.9070553655912463 0  0.9145967731787312 0.8863870506537688 0  0.8997021496342201 0.8673754683518409 0  0.882624531648159 0.8502978503657798 0  0.863612949346231 0.8354032268212686 0  0.8429446344087537 0.822908794869358 0  0.8209209774085071 0.8129967514629171 0  0.7978631328575114 0.8058116365147896 0  0.7741073360510646 0.8014582251803892 0  0.75 0.8 0  0.7258926639489353 0.8014582251803892 0  0.7021368671424885 0.8058116365147896 0  0.6790790225914928 0.8129967514629171 0  0.6570553655912461 0.8229087948693581 0  0.6363870506537688 0.8354032268212688 0  0.617375468351841 0.8502978503657798 0  0.6002978503657798 0.867375468351841 0  0.5854032268212687 0.8863870506537689 0  0.572908794869358 0.9070553655912463 0  0.5629967514629171 0.9290790225914929 0  0.5558116365147896 0.9521368671424885 0  0.5514582251803892 0.9758926639489355 0  0.55 0.9999999999999999 0  0.45 0.9999999999999999 0  0.4485417748196108 0.9758926639489353 0  0.4441883634852104 0.9521368671424885 0  0.4370032485370829 0.9290790225914928 0  0.427091205130642 0.9070553655912463 0  0.4145967731787313 0.8863870506537688 0  0.3997021496342201 0.8673754683518409 0  0.382624531648159 0.8502978503657798 0  0.363612949346231 0.8354032268212686 0  0.3429446344087536 0.822908794869358 0  0.3209209774085071 0.8129967514629171 0  0.2978631328575115 0.8058116365147896 0  0.2741073360510646 0.8014582251803892 0  0.25 0.8 0  0.2258926639489353 0.8014582251803892 0  0.2021368671424885 0.8058116365147896 0  0.1790790225914928 0.8129967514629171 0  0.1570553655912462 0.8229087948693581 0  0.1363870506537688 0.8354032268212688 0  0.117375468351841 0.8502978503657798 0  0.1002978503657797 0.867375468351841 0  0.08540322682126869 0.8863870506537689 0  0.07290879486935797 0.9070553655912463 0  0.06299675146291703 0.9290790225914929 0  0.05581163651478957 0.9521368671424885 0  0.0514582251803892 0.9758926639489355 0  0.04999999999999999 0.9999999999999999 0  0 1 0  -0 0.7000000000000001 0  0.0241073360510646 0.6985417748196108 0  0.04786313285751161 0.6941883634852104 0  0.07092097740850711 0.6870032485370829 0  0.09294463440875372 0.677091205130642 0  0.1136129493462312 0.6645967731787312 0  0.1326245316481591 0.6497021496342202 0  0.1497021496342202 0.632624531648159 0  0.1645967731787313 0.6136129493462312 0  0.177091205130642 0.5929446344087537 0  0.187003248537083 0.5709209774085071 0  0.1941883634852104 0.5478631328575115 0  0.1985417748196108 0.5241073360510646 0  0.2 0.5 0  0.1985417748196108 0.4758926639489353 0  0.1941883634852104 0.4521368671424885 0  0.1870032485370829 0.4290790225914928 0  0.177091205130642 0.4070553655912463 0  0.1645967731787313 0.3863870506537688 0  0.1497021496342202 0.3673754683518409 0  0.132624531648159 0.3502978503657798 0  0.113612949346231 0.3354032268212686 0  0.09294463440875361 0.322908794869358 0  0.07092097740850711 0.3129967514629171 0  0.04786313285751148 0.3058116365147896 0  0.02410733605106464 0.3014582251803892 0  0.6985417748196108 0.5241073360510646 0  0.7 0.5 0  0.6985417748196108 0.4758926639489353 0  0.6941883634852104 0.4521368671424885 0  0.6870032485370829 0.4290790225914928 0  0.677091205130642 0.4070553655912463 0  0.6645967731787312 0.3863870506537688 0  0.6497021496342201 0.3673754683518409 0  0.632624531648159 0.3502978503657798 0  0.613612949346231 0.3354032268212686 0  0.5929446344087537 0.322908794869358 0  0.5709209774085071 0.3129967514629171 0  0.5478631328575114 0.3058116365147896 0  0.5241073360510646 0.3014582251803892 0  0.4999999999999999 0.3 0  0.4758926639489353 0.3014582251803892 0  0.4521368671424885 0.3058116365147896 0  0.4290790225914928 0.3129967514629171 0  0.4070553655912462 0.3229087948693581 0  0.3863870506537688 0.3354032268212687 0  0.367375468351841 0.3502978503657798 0  0.3502978503657798 0.367375468351841 0  0.3354032268212687 0.3863870506537689 0  0.322908794869358 0.4070553655912464 0  0.3129967514629171 0.4290790225914929 0  0.3058116365147896 0.4521368671424885 0  0.3014582251803892 0.4758926639489354 0  0.3 0.4999999999999999 0  0.3014582251803892 0.5241073360510646 0  0.3058116365147896 0.5478631328575115 0  0.3129967514629171 0.5709209774085071 0  0.3229087948693581 0.5929446344087538 0  0.3354032268212687 0.6136129493462312 0  0.3502978503657798 0.632624531648159 0  0.367375468351841 0.6497021496342202 0  0.3863870506537689 0.6645967731787313 0  0.4070553655912463 0.677091205130642 0  0.4290790225914929 0.6870032485370829 0  0.4521368671424885 0.6941883634852104 0  0.4758926639489354 0.6985417748196108 0  0.4999999999999999 0.7 0  0.5241073360510646 0.6985417748196108 0  0.5478631328575116 0.6941883634852104 0  0.5709209774085071 0.6870032485370829 0  0.5929446344087537 0.677091205130642 0  0.6136129493462312 0.6645967731787312 0  0.6326245316481591 0.6497021496342202 0  0.6497021496342202 0.632624531648159 0  0.6645967731787312 0.6136129493462312 0  0.677091205130642 0.5929446344087537 0  0.6870032485370829 0.5709209774085071 0  0.6941883634852104 0.5478631328575115 0  0 0.15 0  1 0.15 0  1 0.85 0  0 0.8500000000000001 0  0 0.075 0  1 0.075 0  1 0.925 0  0 0.925 0  0.5 0.8127595604293815 0  0.5069440078039168 0.190422209288238 0  0.25 0.3127595604293815 0  0.756944007803917 0.3095777907117619 0  0.756944007803917 0.6904222092882382 0  0.25 0.6872404395706185 0  0 0.225 0  0.4255768646051012 0.2241073097134061 0  1 0.7749999999999999 0  0.6773391559270888 0.2766774022734219 0  1 0.225 0  0.6755768646051011 0.7241073097134062 0  0 0.7750000000000001 0  0.5818971135297744 0.2287925518358889 0  0.8318971135297746 0.728792551835889 0  0.1659156081861886 0.7301636995921477 0  0.08376842746533225 0.2299656297760495 0  0.4236002201977974 0.7746535834185855 0  0.0840843918138115 0.7698363004078523 0  0.3340843918138113 0.7301636995921477 0  0.3340843918138114 0.2698363004078523 0  0.9159156081861887 0.2301636995921477 0  0.5840843918138116 0.7698363004078522 0  0.1659156081861887 0.2698363004078523 0  0.9162315725346678 0.7700343702239506 0  0.8340843918138114 0.2698363004078523 0  0.75 0.6146645247768686 0  0.5 0.1125158665330878 0  0.75 0.3874841334669124 0  0.2504983345544904 0.6122915843562002 0  0.2504983345544902 0.3877084156437999 0  0.5 0.8879783056303169 0  0.7005361650220154 0.3333055947145943 0  0.70416808765371 0.6599554817221275 0  0.449930214263529 0.1678187287522426 0  0.2247310981387008 0.7415600637745463 0  0.5155081196221678 0.7563797802146907 0  0.2752689018612993 0.2584399362254537 0  0.05605196690611226 0.8246131191226815 0  0.9439480330938878 0.1
[...]
<PointData  Scalars="Temperature"> 
<DataArray  type="Float64"  Name="Temperature"  format="ascii">2.7663902262434238e+01  2.8828575118623828e+01  2.8821788553040658e+01  2.8801914851354631e+01  2.8744946026297342e+01  2.8652767875795632e+01  2.8524012364084864e+01  2.8356237416608465e+01  2.8151627881680454e+01  2.7908678888184532e+01  2.7622665993954275e+01  2.7295570950456558e+01  2.6922729543658800e+01  2.6430857160385241e+01  2.6837443110880990e+01  2.8580794992639415e+01  2.2729364137850624e+01  7.3614652007913350e+01  -4.5778002584638379e+01  -1.3863812564466318e+02  3.5428101383085018e+03  9.6475121885003446e+03  5.7626756234165969e+03  1.7732644751842647e+04  -9.6270934545519031e+03  -2.3241362782218348e+03  -1.1300378505236956e+03  3.1762599398083273e+02  -2.1422975851535955e+02  -5.7557538886410221e+03  1.0605933906510078e+04  -1.9287342759753970e+04  3.6536391919939616e+05  -2.1468369749386320e+06  -2.3681266136282504e+07  1.5952457625003576e+07  6.3082875857860625e+08  9.2988471700047326e+08  3.8372255617537498e+09  -9.8097159664343815e+09  1.4419070804847900e+11  -1.1809788005591566e+11  3.0168592194959106e+09  4.5492013954219046e+09  3.0664204710926785e+10  -9.7071562024362874e+08  -9.8901886830714893e+09  2.0507369432804140e+08  -5.6667417272185612e+08  2.5702931659060698e+07  -3.7380273727501653e+07  1.1869967681859883e+07  -6.6624342549697252e+05  -2.5221360696012448e+05  -2.2508286492973923e+04  5.9759192204854971e+03  -2.0810023529561047e+02  5.4289184010205757e+10  1.5858185528431921e+11  1.1359872891570208e+12  7.5926215477108389e+12  4.1131884953462875e+13  3.6118433129590994e+14  7.9825430150756162e+14  -4.0033867451209400e+14  7.3216548317595872e+16  -3.8814974266664352e+17  1.0771313815893393e+18  -2.2256276778701656e+19  8.9166252836866474e+19  7.7329766581247056e+20  -5.2693005481086466e+21  1.7012080602559109e+22  -1.1566074810198365e+23  9.8659197184814919e+23  -8.8721981460367325e+23  3.0179754899889684e+25  6.4956612466823955e+26  1.1996803217693208e+27  1.9156017277195777e+28  -2.8469535289651382e+27  -3.4617434382537535e+29  6.6762084049757370e+29  2.4138210989794044e+30  1.6510474508424237e+27  -8.7438956111494510e+27  1.2670115442557117e+28  1.2061104351812913e+28  2.0611362565297219e+29  -2.3975168849650879e+29  1.1550271938626850e+30  -7.1130884879504864e+29  5.5631587557038669e+27  9.0291131156808826e+28  2.9464856247744846e+28  -4.8496690829554699e+27  -4.5699948788035538e+26  -6.4265732187647223e+24  -4.0968002515587349e+24  -2.0392126970511515e+23  -9.9277192474894459e+21  7.3355795366549672e+21  -2.7907074957562098e+20  -1.2603007833445271e+20  3.8358045049493651e+19  -2.2549349232287396e+18  1.0514752855230404e+18  -8.4725702997736256e+16  3.5921879742656464e+16  1.0631712479249152e+15  -3.3216310735953331e+14  -1.9812401080856103e+14  -4.3711292262818169e+12  1.2219133015072957e+12  -2.0062744210962562e+13  2.5811871723472969e+13  3.3139354013923793e+13  1.3216005588626598e+13  -1.6615597600309469e+13  -1.1728821704078441e+13  9.7648527951409778e+11  3.1438560039703162e+11  -5.6357315288068756e+10  1.4172779854580622e+10  -2.3128432084586506e+09  -3.3503798624999875e+08  7.4220425221657798e+07  -1.1955513674243433e+07  -1.5212289838525263e+05  5.2444841787601319e+04  5.4402133369931726e+03  1.3167603729174948e+01  7.9116624345851292e+01  1.7598666890542027e+01  2.1598308946700051e+01  2.1633363466082649e+01  2.1594963692127127e+01  2.1539875873537483e+01  2.1508243821838654e+01  2.1509282860027572e+01  2.1509281527966483e+01  2.4949822303091430e+01  4.7009638775806572e+01  -5.5666274309694884e+01  -1.0845513712912029e+03  -3.0475311199523667e+03  2.5704477097866969e+04  4.5795496718152390e+04  -2.2253174067679916e+04  1.0559117031688469e+05  1.7743267581145567e+04  -2.7811080214925264e+03  2.1117500986632963e+03  -7.2570153995080329e+02  -2.8055489192060793e+02  7.6441805642887914e+01  1.2126015979395033e+01  2.8958324496566291e+01  2.4464309324933577e+01  2.5846434148190344e+01  2.6350499186944301e+01  2.6691302035175237e+01  2.7012261876457245e+01  2.7285225892197221e+01  2.7489359522102429e+01  2.7619180712163754e+01  -2.1842427391730145e+18  4.0344763751907885e+19  1.0072369565776675e+18  3.6886864392950999e+18  6.5804689352579368e+16  -3.1722526092737944e+16  5.0008643469071590e+15  -3.2696278920371984e+13  -1.1633510645662317e+14  -3.6678091927527109e+12  -1.5532184447560344e+12  -2.0537773926301823e+10  4.5024982383586266e+10  1.0998093841200987e+10  2.1452821265457207e+08  1.4278267158640322e+08  1.1026429615933241e+07  -8.6264124691978171e+06  -6.4061379067350063e+05  1.1427491586642695e+04  -6.9911332292931456e+03  -4.5184436066161174e+02  5.6693704725178911e+01  1.2987874345328182e+01  6.6609259807378765e+00  -2.4949564156385870e+02  1.8646555086182229e+03  -8.2664292591324975e+03  6.3036956891040689e+04  -8.1829743421697058e+04  -4.1241195379320707e+05  -4.4941124309254847e+07  1.1926048584448621e+07  5.2193631284862719e+09  -2.2891959859460175e+10  -8.3211711248640076e+10  2.2183671408788428e+12  8.7354610158572021e+12  3.9283421333182070e+13  4.4292040766353695e+13  2.8973887722771285e+15  4.5358086539264060e+15  4.3002205820310317e+17  -6.3180061511230362e+17  2.0072298842987258e+19  -1.9384400651607925e+19  -6.9411943147533328e+19  -1.1002480339273423e+20  -5.5543759444453898e+18  -3.8697666548931651e+20  6.1681366439834983e+20  4.9219492792208294e+19  2.8370043571917400e+01  -5.5611918178991057e+07  -1.8469217216953764e+32  2.2291044682466840e+01  2.8700240760697891e+01  1.6682158131034661e+05  -3.5666350915258538e+29  2.1687317113983546e+01  -1.3204220596495314e+16  1.0786849893853821e+07  2.5139843912047915e+01  -3.7200373968470581e+14  6.7112091110196073e+23  7.3044211239020914e+07  2.7945895107481757e+01  -5.5235296945784800e+05  -1.7748661008113876e+32  1.9064685315913449e+11  4.2352983314145718e+09  2.2468991990227117e+21  2.6553897978980739e+01  -4.4188985429990435e+09  6.5972476397643118e+26  2.7229884153667481e+04  2.7634736169149701e+01  -5.2733522195168398e+13  2.2691072348298113e+02  3.1113051253166100e+10  -3.3299336987851989e+03  1.0663082185547881e+11  1.9643254261751251e+19  2.6637419089857651e+01  1.2179168527147897e+30  5.9486781570282141e+11  -3.7678949165145442e+22  -2.1748138691577988e+05  -1.1950809661302672e+16  1.1373226085449627e+07  2.2869303947153238e+01  -2.4427160206593395e+15  -8.9699572564666703e+13  4.2373920429659820e+21  2.8844488632680202e+05  5.7114515967133535e+04  2.6818133416024828e+16  -5.8715537915073980e+01  4.0967367225801432e+01  -1.1949317455424695e+08  2.8118664224654410e+01  1.9565887225012668e+31  -4.3168888282355167e+07  2.8354224686685937e+23  -1.6656554226498831e+12  -2.5990134744394522e+14  7.9501500110712647e+05  2.5963037636962376e+01  8.2858305991509509e+08  8.8828959667393960e+01  -5.0179116899437200e+16  3.6178292672211592e+03  -5.7700046039212224e+17  1.0531437674927530e+21  -6.7839603329247034e+00  7.8505598497388331e+04  3.7188774181745894e+12  4.7051171434887219e+14  2.4570450390355997e+01  -2.4579835112890053e+08  -1.8299611376065040e+08  3.8461972293204521e+24  -7.5573482400555638e+14  -6.0599715451595009e+10  -3.2452213613909052e+05  -1.4645945080115645e+04  1.4342149452039662e+21  -3.6696474588628476e+19  -1.3793361052310486e+12  1.4214090447005283e+25  1.3349631717192676e+12  -1.0889084807692652e+20  -7.5270370196783233e+02  -8.1253728569935465e+03  1.1151388590925564e+12  1.5880205266334597e+12  -9.4766552865340638e+08  2.2370581945557008e+28  2.9385804007938696e+28  -6.1395423858275750e+15  2.7224850179254190e+01  2.0680904100906016e+01  -7.0022888334799301e+10  2.2355598043594975e+04  2.7097316293964013e+01  3.2021844171056950e+03  1.2699807743882954e+10  -9.6363631879602020e+10  1.7949094221849401e+30  2.7683574658903719e+01  -1.5063639396554111e+07  9.0437880854579014e+30  2.8439378819513763e+01  2.2704856583369601e+01  -4.5515824238455944e+16  6.9618608517774502e+25  -9.9889998536873646e+06  3.1798566374230664e+22  -6.0028441782375899e+19  6.4561953466173004e+10  2.6516232228720774e+01  6.2937567906386318e+09  -5.3270313584385704e+03  -7.7453617628777545e+04  1.0559784083163568e+03  2.7801802478229039e+01  1.9982424051259152e+29  2.4076155944171585e+06  2.5391170751406847e+01  -6.1983367514136448e+16  7.2642669554242905e+26  2.7375290646236660e+01  5.4609955714061268e+07  -5.6949252502436157e+11  3.8043223141041305e+13  -2.4215119923873110e+12  -1.0083152900150763e+07  5.1694434510237807e+20  3.8828829416887352e+03  3.7553917922409395e+22  -1.3430593817972662e+14  1.8353865143257775e+14  -4.7112137590220062e+10  2.6681575102519536e+12  2.5606246847380800e+26  2.2511841397812934e+09  2.3351747382943383e+06  -8.2290475485684124e+02  9.9311221443872929e+09  2.6468046454690569e+01  -1.1774646801952447e+14  1.4197753627135862e+18  -9.6503815456942748e+06  2.7932799297168714e+01  -2.0242187958027350e+11  -3.0233656851392212e+09  3.6614251389703988e+01  -8.9789591433303248e+16  2.4006672164790636e+01  -6.1703311455437869e+07  2.4959732784819457e+13  -2.9374757646036022e+30  5.1738350368940621e+04  1.5847069645296975e+15  1.0411536498973704e+16  1.0278648759933063e+06  2.8163002702371653e+01  -1.6660499666677180e+22  -1.9150617112346003e+21  -2.2297720723510477e+23  -6.1458025269494494e+04  2.6603577795939128e+01  6.7194874511310026e+07  2.8162966853899764e+01  1.5047936114754995e+02  -6.5289849990275679e+03  -5.4359832634771061e+04  3.0535045474486854e+17  2.6149976922965288e+16  -7.8701034551932016e+16  -3.2695793764003350e+15  -5.0513544229701038e+14  2.2270798144548497e+33  2.1972281433240973e+01  1.6227023840396995e+31  -6.7068705991315782e+08  2.7754552472117847e+01  3.1480329085190242e+04  2.8795542495373653e+01  -2.2912625648955745e+06  -1.5251168311900238e+06  2.8553697243381883e+01  -2.1390102850811760e+28  2.1567455043786904e+01  -2.9552688554172281e+30  2.2149489003770331e+01  2.1669161995639982e+01  1.6982024041208604e+01  2.8427540726978797e+06  1.1493083919342145e+07  -1.3007049648434113e+02  -2.1065938613552870e+15  3.3328165693559037e+29  4.2653357686935550e+08  2.6063233478576613e+01  7.2321063937295918e+24  2.4737216310357262e+22  1.1248309387912741e+15  3.0635688615357277e+31  1.2591644441054610e+18  -1.7824346835129708e+08  1.4346641238677761e+07  2.5881602065765115e+01  2.7064752347374885e+01  -1.7856486003516043e+11  -1.4887894952918377e+07  1.1812652763594529e+13  -4.7279326234637220e+15  1.9103563675048381e+17  1.2916522644091877e+21  4.5217937220193898e+20  -4.2799157241609425e+30  2.8612231329179171e+01  2.7471685446444415e+01  4.6064519254125222e+25  6.3150944107838297e+08  2.6361341629638133e+01  1.5678345986110138e+11  -2.8311446044988137e+08  -1.5559702705020208e+22  -2.8260385356362360e+11  2.3873076040022140e+15  -1.0778201950986775e+05  7.0419436057797575e+19  2.0633402447052617e+13  2.8746160204136057e+01  -2.0354119664646356e+05  -1.5388736821494830e+29  2.1676054732543530e+01  -8.5952000485379028e+11  -1.1322023707391440e+21  -9.8736448643369935e+06  1.8483853333749842e+01  2.6756067253430878e+01  -7.4431216149625003e+07  8.2781346205394296e+06  9.9869558017314682e+10  2.8073045134068916e+01  2.7888060274756910e+01  2.8244831265209513e+01  4.4274267078870296e+04  -8.9694431296530587e+05  2.7442779152676142e+01  -1.0447978044338002e+15  -9.1512183048321617e+02  8.4889239348548090e+03  -1.9823641501693626e+10  -2.4170310145979912e+12  4.6471868994938660e+11  -1.2273826389904855e+03  4.4933159048480137e+19  -9.4705546547473878e+31  -1.2833988285340273e+21  1.2168747757788277e+23  -6.9849582410014021e+08  5.8865001257119300e+14  -9.6950831634146112e+14  1.1296804776598872e+03  2.4950540641714642e+03  1.2376343718538490e+19  1.0686404735597778e+18  -4.1249085250165621e+02  -2.6939437388576533e+02  -3.9992439189156543e+12  5.9405800111399736e+27  2.2807075859503438e+13  -7.0146211384885263e+09  -4.0263782707359354e+02  4.0510443861135681e+11  2.6254297866391617e+01  -4.0276580730373812e+08  1.7135982956051700e+07  -7.3097220476557966e+05  -1.0697469784597548e+01  1.5100646339543324e+01  5.7992128433124930e+07  -2.7794529169258132e+18  4.5230590333878822e+17  1.0094355879838011e+01  -4.6483171415344410e+05  -5.9967566496202892e+01  2.6122165272362796e+01  -2.2453475918632154e+09  2.6401479105168028e+05  -1.5599232970008243e+17  -1.9306631886737729e+20  7.3701911909357047e+20  -1.9868308988532452e+04  -8.6557632607212308e+03  2.6891646500373891e+01  4.2816449557193705e+22  2.7463431157999554e+23  4.5699963575325283e+23  -2.7215095461619301e+06  9.6815803573877416e+21  -1.6715347556916326e+16  9.0681312496200582e+04  2.7972969544633199e+13  1.3139281853042052e+14  8.3127016709674700e+14  -1.4656776133104810e+08  -4.5782803063517518e+07  -5.9968977746369055e+11  4.4160891571328693e+11  1.3503028898426131e+31  2.7463402098782591e+01  1.7740656638957425e+15  -6.7445170721606761e+07  4.5866332195482986e+27  -4.5999656127491315e+27  5.0235043245077047e+13  1.4441900980810107e+13  -7.5906543813178070e+10  2.2270701849505852e+05  -9.7027165084909957e+03  -1.0622405135162291e+04  -3.8155264656782459e+20  6.6582991326765646e+19  -3.7158229111052056e+12  -1.9541554359788065e+09  -1.6061520264267761e+06  1.9681987385713580e+09  4.0981886402849225e+11  -6.3257266212304920e+21  4.9854533321706648e+09  2.1041977657771511e+02  -9.5399619412545166e+09  -4.5129430571549194e+27  -3.0901207394094240e+03  2.8825725596597508e+01  2.1506991054764356e+01  8.7848862911283486e+06  1.2757212426549406e+11  1.4442606811910096e+03  -3.1944621062658445e+13  3.8619623670464014e+21  -1.5591216863928172e+13  1.3163386063468610e+04  -1.5105433911659541e+03  5.3952159161785005e+00  2.3333993371091452e+11  2.4723571838409527e+27  1.3680604786540567e+28  1.6579886915184619e+29  2.5869957416980277e+27  -3.4196817261904737e+18  -6.4570999669961134e+02  3.7578866792564816e+05  2.4550049386620520e+13  1.6675836755385406e+13  1.1593030201494205e+14  1.5821333892997138e+19  1.9803803996285009e+22  3.0462347200780561e+04  2.1836977488502773e+05  2.6794559335089467e+01  -1.9830850953317750e+02  5.2464037643706318e+12  2.7362294279417522e+01  9.7378102511142045e+06  7.7643189815069016e+10  1.7487475658430096e+17  2.7848646038727875e+01  5.8416142493814550e+04  6.2955014329714960e+24  1.8977109213753015e+24  2.0216891668607700e+30  1.5064743130129120e+09  2.6181529077081883e+01  1.0629826483472594e+09  2.1041059835292969e+05  3.4968257967546087e+04  4.8148534691283576e+03  -1.2582625837674875e+03  7.9179299899634565e+18  2.8267723674742822e+01  -5.0091129587804567e+28  5.9873433666250762e+01  4.2129184421240991e+12  2.7210906495823501e+01  -4.2014549071436423e+08  6.2366788682621226e+23  1.3163738765453569e+14  -1.7042385719688939e+03  -2.1496378161816356e+18  2.5770871520904318e+01  6.2896748309685812e+14  3.9091010609651061e+31  4.5890685978702550e+02  5.0608425771815271e+11  5.1308733398026520e+00  4.9276620321629318e+10  1.2818924395504620e+04  1.4159816158061461e+04  2.1545935516378940e+01  2.8802485934545530e+01  -2.3146560140064286e+28  2.5450505840858094e+07  8.2139691249942720e+15  3.7144502961227668e+28  -8.3818008189482776e+11  -2.1243614588210576e+03  -7.6264613264178513e+10  6.5544383511608398e+11  1.6664481769137654e+19  2.7573180165901910e+01  3.1053190706410151e+04  -1.6724323118152213e+02  3.2953688446785831e+08  2.4643003500809194e+12  -1.4783946799935031e+11  3.4645233818647626e+11  3.7204237574689181e+01  8.6059986713266968e+10  3.4078839206884702e+01  -2.3513354121094819e+17  1.3657792601730809e+08  2.2002282772182237e+01  -2.9822658179388316e+06  4.2220564943436500e+25  2.5386519696313670e+01  2.1408616769041520e+13  1.4349996675932414e+26  3.0870759307409466e+24  2.7348499084285797e+24  -3.2464495180916629e+13  -7.8482232379399438e+13  5.8720703337330620e+30  -7.2946086434323480e+05  2.6228576889878781e+01  2.7165950648571892e+09  -3.2712455255197670e+15  -2.0911355354117681e+21  3.7045920062823556e+07  9.5990529721862390e+02  1.1204971868391635e+32  -9.5347496064505179e+00  -1.4466545576147941e+08  -9.9859332854502588e+02  -4.5846212172685410e+12  8.4870376420825110e+01  -1.9090706208756979e+05  2.6751304880906186e+01  5.9193641700659657e+08  1.5677032340033369e+02  -8.6150552105418129e+01  -4.3900042695125656e+10  -1.4682330613675392e+09  9.6742272404712372e+09  -1.8488968322489050e+30  2.8094982012932601e+01  1.7062817895197852e+09  2.6483669849864885e+01  -1.0175550219730838e+16  -4.5589623289052200e+08  -5.9320479972775221e+09  1.5462507180868802e+11  -3.4524922157119595e+07  2.2514900355290479e+01  1.2002177104812876e+01  2.8502525034328473e+13  2.2762356254779416e+01  -2.4267300048615495e+05  -8.8062109874114136e+26  1.8050315397130914e+06  7.0957715043747953e+13  2.7174801470520318e+01  3.8131956055092993e+12  2.6900356818900693e+01  2.7163117008963368e+01  -4.4647296230290254e+29  -9.9101368083559114e+29  2.7678923311884201e+01  2.7762310122094039e+01  4.8534609523174346e+04  -1.9700175998379984e+13  6.9625631213778061e+17  3.0484035307943068e+16  -8.6676703463368438e+14  9.4706438739656840e+15  3.3108356198205049e+12  -6.7578820488784475e+32  1.5328110702969098e+17  -3.5017553149113433e+12  6.4433020271874597e+01  -1.3298376123544874e+03  -6.2143336445407490e+15  -1.2577104726821095e+19  -9.9998438811376020e+15  -3.9844851976156875e+13  -1.0725367778831050e+23  7.2645758868758401e+00  2.0786848449750236e+04  3.8285811064660926e+01  2.8138475305567001e+05  1.1215856943471320e+07  2.4652401997189013e+01  1.8042454457008731e+31  2.8465687337945457e+01  2.8380279935939946e+01  2.8379951396891972e+01  2.2784881113014146e+30  -8.0195603331546465e+29  2.2068606422684961e+26  2.3739154107141253e+07  2.0223009570327095e+25  -2.1053356665308704e+05  -3.6135153321125496e+23  -5.0330978296552710e+07  6.0673675715012029e+06  2.5675192961993506e+01  2.1922354478274499e+01  2.2557333876854990e+01  3.2706000654414035e+15  2.8523792229246073e+01  2.1501300357967907e+01  -8.8191506905168039e+05  7.5472697259065042e+29  -2.1290964800493114e+07  1.2667122323804469e+13  -2.3962743754083534e+10  2.5240215750475290e+01  4.2328209872248456e+07  -5.2208800078770342e+09  2.3794228911601532e+01  -1.4994751053802127e+20  1.3494152106542779e+25  4.4544621768414412e+24  3.2668989457704943e+26  2.5379525113265906e+01  -5.4319382297050270e+15  2.7718406397717128e+01  1.3089144161437536e+26  -1.2102927036748151e+03  -1.9762988276904340e+09  1.4058168527861282e+06  5.0585365941931874e+07  1.0500672272523963e+32  7.7368550658231375e+14  2.7576578466765483e+01  2.7376311593428593e+24  3.1903341088330512e+03  -5.0249500288099077e+20  -4.6744937689318749e+03  1.4669473472629163e+09  2.5759629179583827e+20  -6.9214391804153910e+15  1.6750976772270380e+18  5.1116171041735864e+16  2.6247740072734938e+01  -2.1711318241604927e+03  2.3759656055870846e+10  9.4442083053086280e+15  2.9914685155430925e+14  3.4769632561740662e+14  -3.6831104300616525e+14  1.5321049829316026e+16  -1.5609118542627289e+05  -8.9313631347218306e+03  -8.0862142733582321e+10  -2.9276869795692142e+10  2.1061784964573508e+01  3.1660917253311658e+11  2.2579907980010866e+01  -3.2289107712805942e+07  -1.1655939833495631e+05  -4.0971421110308025e+05  -3.3231495499249804e+05  -8.2443009728934777e+08  1.1047827537725768e+13  5.7818099733893302e+21  -1.5686333690787104e+21  8.8752690462823314e+22  2.3706459053993553e+14  8.4256258481079892e+29  -5.9790514456199205e+08  -1.0070199934507664e+13  2.7721129546102731e+01  2.7976761912680885e+01  2.6829242926897759e+01  1.1982133671551118e+11  -1.6827646943702271e+10  1.8680439945923252e+10  -4.5339756749968584e+16  1.8773922217525567e+19  2.6405681814779498e+01  6.1744861237110117e+03  -2.4006147566778806e+29  -4.6224044162024401e+07  2.9005818515298478e+06  -1.2325617261585061e+12  2.5875149447896405e+01  5.3866285277886382e+19  7.7332985564865085e+04  -9.6965085398589951e+20  -6.8737521944871396e+03  -1.1957332229449215e+13  -5.3090420545538330e+12  -7.2112237007611300e+18  1.4688697055247238e+02  -1.19435561