<?xml version="1.0"?>
<VTKFile type="UnstructuredGrid"  version="0.1"  >
<UnstructuredGrid>
<Piece  NumberOfPoints="2331" NumberOfCells="4248">
<Points>
<DataArray  type="Float64"  NumberOfComponents="3"  format="ascii">0 0.3 0  0 0 0  0.04999999999999999 0 0  0.0514582251803892 0.02410733605106462 0  0.0558116365147896 0.04786313285751154 0  0.06299675146291706 0.07092097740850717 0  0.07290879486935808 0.09294463440875382 0  0.08540322682126872 0.1136129493462312 0  0.1002978503657798 0.132624531648159 0  0.117375468351841 0.1497021496342203 0  0.1363870506537689 0.1645967731787313 0  0.1570553655912463 0.177091205130642 0  0.1790790225914929 0.187003248537083 0  0.2021368671424885 0.1941883634852104 0  0.2258926639489354 0.1985417748196108 0  0.25 0.2 0  0.2741073360510646 0.1985417748196108 0  0.2978631328575116 0.1941883634852104 0  0.3209209774085071 0.187003248537083 0  0.3429446344087537 0.177091205130642 0  0.3636129493462312 0.1645967731787313 0  0.3826245316481591 0.1497021496342202 0  0.3997021496342202 0.132624531648159 0  0.4145967731787313 0.1136129493462312 0  0.427091205130642 0.09294463440875371 0  0.4370032485370829 0.07092097740850713 0  0.4441883634852104 0.04786313285751155 0  0.4485417748196108 0.02410733605106461 0  0.45 0 0  0.55 0 0  0.5514582251803892 0.02410733605106462 0  0.5558116365147896 0.04786313285751154 0  0.5629967514629171 0.07092097740850717 0  0.5729087948693581 0.09294463440875382 0  0.5854032268212688 0.1136129493462312 0  0.6002978503657798 0.132624531648159 0  0.617375468351841 0.1497021496342203 0  0.6363870506537689 0.1645967731787313 0  0.6570553655912463 0.177091205130642 0  0.6790790225914929 0.187003248537083 0  0.7021368671424885 0.1941883634852104 0  0.7258926639489354 0.1985417748196108 0  0.75 0.2 0  0.7741073360510646 0.1985417748196108 0  0.7978631328575116 0.1941883634852104 0  0.8209209774085071 0.187003248537083 0  0.8429446344087537 0.177091205130642 0  0.8636129493462312 0.1645967731787313 0  0.8826245316481591 0.1497021496342202 0  0.8997021496342202 0.132624531648159 0  0.9145967731787312 0.1136129493462312 0  0.927091205130642 0.09294463440875371 0  0.9370032485370829 0.07092097740850713 0  0.9441883634852104 0.04786313285751155 0  0.9485417748196108 0.02410733605106461 0  0.95 0 0  1 0 0  1 0.3 0  0.9758926639489353 0.3014582251803892 0  0.9521368671424885 0.3058116365147896 0  0.9290790225914928 0.3129967514629171 0  0.9070553655912461 0.3229087948693581 0  0.8863870506537688 0.3354032268212687 0  0.867375468351841 0.3502978503657798 0  0.8502978503657798 0.367375468351841 0  0.8354032268212687 0.3863870506537689 0  0.822908794869358 0.4070553655912464 0  0.8129967514629171 0.4290790225914929 0  0.8058116365147896 0.4521368671424885 0  0.8014582251803892 0.4758926639489354 0  0.8 0.4999999999999999 0  0.8014582251803892 0.5241073360510646 0  0.8058116365147896 0.5478631328575115 0  0.8129967514629171 0.5709209774085071 0  0.8229087948693581 0.5929446344087538 0  0.8354032268212688 0.6136129493462312 0  0.8502978503657798 0.632624531648159 0  0.867375468351841 0.6497021496342202 0  0.8863870506537689 0.6645967731787313 0  0.9070553655912463 0.677091205130642 0  0.9290790225914929 0.6870032485370829 0  0.9521368671424885 0.6941883634852104 0  0.9758926639489354 0.6985417748196108 0  1 0.7 0  1 1 0  0.95 1 0  0.9485417748196108 0.9758926639489353 0  0.9441883634852104 0.9521368671424885 0  0.9370032485370829 0.9290790225914928 0  0.927091205130642 0.9070553655912463 0  0.9145967731787312 0.8863870506537688 0  0.8997021496342201 0.8673754683518409 0  0.882624531648159 0.8502978503657798 0  0.863612949346231 0.8354032268212686 0  0.8429446344087537 0.822908794869358 0  0.8209209774085071 0.8129967514629171 0  0.7978631328575114 0.8058116365147896 0  0.7741073360510646 0.8014582251803892 0  0.75 0.8 0  0.7258926639489353 0.8014582251803892 0  0.7021368671424885 0.8058116365147896 0  0.6790790225914928 0.8129967514629171 0  0.6570553655912461 0.8229087948693581 0  0.6363870506537688 0.8354032268212688 0  0.617375468351841 0.8502978503657798 0  0.6002978503657798 0.867375468351841 0  0.5854032268212687 0.8863870506537689 0  0.572908794869358 0.9070553655912463 0  0.5629967514629171 0.9290790225914929 0  0.5558116365147896 0.9521368671424885 0  0.5514582251803892 0.9758926639489355 0  0.55 0.9999999999999999 0  0.45 0.9999999999999999 0  0.4485417748196108 0.9758926639489353 0  0.4441883634852104 0.9521368671424885 0  0.4370032485370829 0.9290790225914928 0  0.427091205130642 0.9070553655912463 0  0.4145967731787313 0.8863870506537688 0  0.3997021496342201 0.8673754683518409 0  0.382624531648159 0.8502978503657798 0  0.363612949346231 0.8354032268212686 0  0.3429446344087536 0.822908794869358 0  0.3209209774085071 0.8129967514629171 0  0.2978631328575115 0.8058116365147896 0  0.2741073360510646 0.8014582251803892 0  0.25 0.8 0  0.2258926639489353 0.8014582251803892 0  0.2021368671424885 0.8058116365147896 0  0.1790790225914928 0.8129967514629171 0  0.1570553655912462 0.8229087948693581 0  0.1363870506537688 0.8354032268212688 0  0.117375468351841 0.8502978503657798 0  0.1002978503657797 0.867375468351841 0  0.08540322682126869 0.8863870506537689 0  0.07290879486935797 0.9070553655912463 0  0.06299675146291703 0.9290790225914929 0  0.05581163651478957 0.9521368671424885 0  0.0514582251803892 0.9758926639489355 0  0.04999999999999999 0.9999999999999999 0  0 1 0  -0 0.7000000000000001 0  0.0241073360510646 0.6985417748196108 0  0.04786313285751161 0.6941883634852104 0  0.07092097740850711 0.6870032485370829 0  0.09294463440875372 0.677091205130642 0  0.1136129493462312 0.6645967731787312 0  0.1326245316481591 0.6497021496342202 0  0.1497021496342202 0.632624531648159 0  0.1645967731787313 0.6136129493462312 0  0.177091205130642 0.5929446344087537 0  0.187003248537083 0.5709209774085071 0  0.1941883634852104 0.5478631328575115 0  0.1985417748196108 0.5241073360510646 0  0.2 0.5 0  0.1985417748196108 0.4758926639489353 0  0.1941883634852104 0.4521368671424885 0  0.1870032485370829 0.4290790225914928 0  0.177091205130642 0.4070553655912463 0  0.1645967731787313 0.3863870506537688 0  0.1497021496342202 0.3673754683518409 0  0.132624531648159 0.3502978503657798 0  0.113612949346231 0.3354032268212686 0  0.09294463440875361 0.322908794869358 0  0.07092097740850711 0.3129967514629171 0  0.04786313285751148 0.3058116365147896 0  0.02410733605106464 0.3014582251803892 0  0.6985417748196108 0.5241073360510646 0  0.7 0.5 0  0.6985417748196108 0.4758926639489353 0  0.6941883634852104 0.4521368671424885 0  0.6870032485370829 0.4290790225914928 0  0.677091205130642 0.4070553655912463 0  0.6645967731787312 0.3863870506537688 0  0.6497021496342201 0.3673754683518409 0  0.632624531648159 0.3502978503657798 0  0.613612949346231 0.3354032268212686 0  0.5929446344087537 0.322908794869358 0  0.5709209774085071 0.3129967514629171 0  0.5478631328575114 0.3058116365147896 0  0.5241073360510646 0.3014582251803892 0  0.4999999999999999 0.3 0  0.4758926639489353 0.3014582251803892 0  0.4521368671424885 0.3058116365147896 0  0.4290790225914928 0.3129967514629171 0  0.4070553655912462 0.3229087948693581 0  0.3863870506537688 0.3354032268212687 0  0.367375468351841 0.3502978503657798 0  0.3502978503657798 0.367375468351841 0  0.3354032268212687 0.3863870506537689 0  0.322908794869358 0.4070553655912464 0  0.3129967514629171 0.4290790225914929 0  0.3058116365147896 0.4521368671424885 0  0.3014582251803892 0.4758926639489354 0  0.3 0.4999999999999999 0  0.3014582251803892 0.5241073360510646 0  0.3058116365147896 0.5478631328575115 0  0.3129967514629171 0.5709209774085071 0  0.3229087948693581 0.5929446344087538 0  0.3354032268212687 0.6136129493462312 0  0.3502978503657798 0.632624531648159 0  0.367375468351841 0.6497021496342202 0  0.3863870506537689 0.6645967731787313 0  0.4070553655912463 0.677091205130642 0  0.4290790225914929 0.6870032485370829 0  0.4521368671424885 0.6941883634852104 0  0.4758926639489354 0.6985417748196108 0  0.4999999999999999 0.7 0  0.5241073360510646 0.6985417748196108 0  0.5478631328575116 0.6941883634852104 0  0.5709209774085071 0.6870032485370829 0  0.5929446344087537 0.677091205130642 0  0.6136129493462312 0.6645967731787312 0  0.6326245316481591 0.6497021496342202 0  0.6497021496342202 0.632624531648159 0  0.6645967731787312 0.6136129493462312 0  0.677091205130642 0.5929446344087537 0  0.6870032485370829 0.5709209774085071 0  0.6941883634852104 0.5478631328575115 0  0 0.15 0  1 0.15 0  1 0.85 0  0 0.8500000000000001 0  0 0.075 0  1 0.075 0  1 0.925 0  0 0.925 0  0.5 0.8127595604293815 0  0.5069440078039168 0.190422209288238 0  0.25 0.3127595604293815 0  0.756944007803917 0.3095777907117619 0  0.756944007803917 0.6904222092882382 0  0.25 0.6872404395706185 0  0 0.225 0  0.4255768646051012 0.2241073097134061 0  1 0.7749999999999999 0  0.6773391559270888 0.2766774022734219 0  1 0.225 0  0.6755768646051011 0.7241073097134062 0  0 0.7750000000000001 0  0.5818971135297744 0.2287925518358889 0  0.8318971135297746 0.728792551835889 0  0.1659156081861886 0.7301636995921477 0  0.08376842746533225 0.2299656297760495 0  0.4236002201977974 0.7746535834185855 0  0.0840843918138115 0.7698363004078523 0  0.3340843918138113 0.7301636995921477 0  0.3340843918138114 0.2698363004078523 0  0.9159156081861887 0.2301636995921477 0  0.5840843918138116 0.7698363004078522 0  0.1659156081861887 0.2698363004078523 0  0.9162315725346678 0.7700343702239506 0  0.8340843918138114 0.2698363004078523 0  0.75 0.6146645247768686 0  0.5 0.1125158665330878 0  0.75 0.3874841334669124 0  0.2504983345544904 0.6122915843562002 0  0.2504983345544902 0.3877084156437999 0  0.5 0.8879783056303169 0  0.7005361650220154 0.3333055947145943 0  0.70416808765371 0.6599554817221275 0  0.449930214263529 0.1678187287522426 0  0.2247310981387008 0.7415600637745463 0  0.5155081196221678 0.7563797802146907 0  0.2752689018612993 0.2584399362254537 0  0.05605196690611226 0.8246131191226815 0  0.9439480330938878 0.1
[...]
<PointData  Scalars="Temperature"> 
<DataArray  type="Float64"  Name="Temperature"  format="ascii">-7.6996609147164627e+41  4.2234903371717136e+37  1.2575363340639606e+38  -2.0076706337539525e+38  8.7292461266221464e+38  -6.8900693381174425e+39  2.0064700773917797e+40  -1.7457488066361919e+41  -2.3805392428949532e+42  1.9612871798750235e+42  2.9076069949015416e+44  3.5297928490043294e+45  2.7453122463266256e+46  1.8021038474764931e+47  -9.1909726444487924e+47  -3.8510787736723203e+48  3.5812077407349223e+48  -6.6396136517971910e+49  9.6004573763613152e+49  2.2222760613138659e+50  -4.8016320528542622e+51  -1.3132025869684563e+52  -7.8314259576218473e+51  -2.4164998555368401e+52  1.3167747624026211e+52  3.2025386206746977e+51  1.5730513035499782e+51  -4.0237924112385206e+50  3.2332945770229260e+50  7.8844441020043448e+51  -1.4441468268865761e+52  2.6348497638543975e+52  -4.9851685036671458e+53  2.9294370523099104e+54  3.2313645125981163e+55  -2.1767454111749555e+55  -8.6077986436635937e+56  -1.2688483818510333e+57  -5.2359797303425351e+57  1.3385575991540958e+58  -1.9675143317683719e+59  1.6114718817908192e+59  -4.1165715822333226e+57  -6.2074866167376528e+57  -4.1841990393317445e+58  1.3245631156974890e+57  1.3495382805036398e+58  -2.7982759670772620e+56  7.7323955972713367e+56  -3.5072195356977779e+55  5.1006243647097619e+55  -1.6196807897798379e+55  9.0913141143998421e+53  3.4417849417126022e+53  3.0740463534099904e+52  -8.1268709519727107e+51  3.1135869297248654e+50  -7.4078800930808166e+58  -2.1638847416635675e+59  -1.5500799619171718e+60  -1.0360301239319186e+61  -5.6125373295906926e+61  -4.9284406599794302e+62  -1.0892357767674890e+63  5.4627103954058787e+62  -9.9905611192246609e+64  5.2963897050996095e+65  -1.4697697649613193e+66  3.0369185457840355e+67  -1.2166933831335331e+68  -1.0551818914135532e+69  7.1900779797880642e+69  -2.3213362952839075e+70  1.5782166730883903e+71  -1.3462267234628036e+72  1.2106312012328177e+72  -4.1180947862043221e+73  -8.8634744720905624e+74  -1.6369905238058164e+75  -2.6138812304916400e+76  3.8847315106061342e+75  4.7236260372352822e+77  -9.1098350915515741e+77  -3.2937126611897698e+78  -2.2528910263333440e+75  1.1931240345335276e+76  -1.7288654767965651e+76  -1.6457645567972613e+76  -2.8124663370618570e+77  3.2714651979654196e+77  -1.5760603360590948e+78  9.7059676969563254e+77  -7.5910540502020090e+75  -1.2320425983933488e+77  -4.0205452725708320e+76  6.6174814976407306e+75  6.2358598158960363e+74  8.7692023189532968e+72  5.5901752058715971e+72  2.7825511517718465e+71  1.3546594068640243e+70  -1.0009561689248931e+70  3.8079825453244142e+68  1.7197084940405848e+68  -5.2340406955355310e+67  3.0769089349404431e+66  -1.4347614503492734e+66  1.1561010913768187e+65  -4.9016205124791403e+64  -1.4507208515924206e+63  4.5324395944375376e+62  2.7034462626987367e+62  5.9645032030152597e+60  -1.6673279199046610e+60  2.7376061404826822e+61  -3.5220873966379453e+61  -4.5219386782804029e+61  -1.8033534032804112e+61  2.2672353064020286e+61  1.6004238493053079e+61  -1.3324359166016945e+60  -4.2898615514248788e+59  7.6900812187168217e+58  -1.9339073802677762e+58  3.1559261100590838e+57  4.5716682586533045e+56  -1.0127539328712985e+56  1.6313595159397814e+55  2.0760557185798156e+53  -7.1531658571649407e+52  -7.3928462009664954e+51  1.2382424373662403e+49  -7.7744944634579320e+49  6.0273192893007163e+48  3.8399587782923786e+47  1.5244577398175089e+47  4.1681750461098615e+46  1.9394417966025113e+45  -2.9859448990677855e+45  -3.0728748402264362e+45  1.9141712785100745e+48  -2.7765419738111855e+48  -3.2861925683725531e+49  1.0726801862533252e+50  1.5112428045711803e+51  4.1898238373098871e+51  -3.5042862868781189e+52  -6.2457412008114565e+52  3.0396638089157526e+52  -1.4404966534788443e+53  -2.4179047837966801e+52  3.8271579396635692e+51  -2.8489741500384640e+51  1.0231086222951157e+51  4.1604595407646579e+50  -7.0703149261398215e+49  1.7470692914181312e+49  -5.0487763681070850e+48  1.5654595582695331e+48  1.7898598997650986e+47  -8.7905525249832277e+45  3.1563835563207819e+45  1.1319992606318470e+45  -1.8278612693718116e+43  2.5434315183011243e+43  3.4167391084451362e+42  2.9804478750175427e+66  -5.5051328882059343e+67  -1.3743972650254968e+66  -5.0332948176657504e+66  -8.9791964523755071e+64  4.3286093522320841e+64  -6.8237908034132527e+63  4.4614800947517567e+61  1.5874184430615846e+62  5.0048073497141449e+60  2.1194011682636511e+60  2.8024250062700415e+58  -6.1437591434513206e+58  -1.5007144015985532e+58  -2.9272849465453600e+56  -1.9483010517654317e+56  -1.5045777480588847e+55  1.1770963787878761e+55  8.7416400524980614e+53  -1.5560478114277541e+52  9.5724457973572916e+51  6.4966401266938972e+50  -4.4121507708733943e+49  1.5553313460695307e+49  2.4118590501376641e+49  3.7349995056466161e+50  -2.5115340258937160e+51  1.1312273635490801e+52  -8.5983105167967112e+52  1.1169038877120127e+53  5.6277682248861243e+53  6.1323196405660638e+55  -1.6273328182100317e+55  -7.1219372278601673e+57  3.1236589212436773e+58  1.1354423369925282e+59  -3.0270113812901425e+60  -1.1919731152136048e+61  -5.3603103508619649e+61  -6.0437476299986773e+61  -3.9535515236291395e+63  -6.1892119504996762e+63  -5.8677467783064196e+65  8.6210601366552860e+65  -2.7389098913040873e+67  2.6450446506897903e+67  9.4714142684178218e+67  1.5013129520360386e+68  7.5790697085892468e+66  5.2803828056937396e+68  -8.4165598555862119e+68  -6.7161094355989712e+67  1.0772926447016306e+40  7.5883728614193947e+55  2.5201658323172914e+80  -2.0386021739374198e+47  3.2140210226142438e+37  -2.2760435706962048e+53  4.8667530347503472e+77  4.1279501458766319e+46  1.8017453148540294e+64  -1.4718866454344802e+55  2.7508271169022314e+47  5.0760738976371940e+62  -9.1575943346437865e+71  -9.9670422642706249e+55  -7.2999750852713029e+40  7.5372970478755638e+53  2.4218443324696733e+80  -2.6014187806343252e+59  -5.7791588936747641e+57  -3.0659440102530172e+69  -5.3681786539065054e+48  6.0296855292200451e+57  -9.0020913684462981e+74  -3.7124862823684548e+52  -1.4080215151394288e+43  7.1956065756847347e+61  -2.7877636048662287e+50  -4.2454451496961559e+58  4.5771091934280135e+51  -1.4550013176229822e+59  -2.6803658024306642e+67  -2.1844009377294452e+46  -1.6618746765280997e+78  -8.1171038610788013e+59  5.1413765493241463e+70  2.9678893250066861e+53  1.6307146005785042e+64  -1.5518988890134120e+55  2.7142875551607538e+48  3.3331404255015502e+63  1.2239706496249409e+62  -5.7820158371483856e+69  -3.9355808140631633e+53  -7.7903503035535951e+52  -3.6593940461944312e+64  1.1459451380298282e+50  -2.5470885187305832e+49  1.6305112602057650e+56  -1.7931566318303950e+41  -2.6698088979205369e+79  5.8904940483480757e+55  -3.8689971219591934e+71  2.2728239293080742e+60  3.5464117829544961e+62  -1.0847844535061375e+54  -2.3742435018997908e+46  -1.1306200128483485e+57  -8.7634750514269227e+49  6.8470522827428033e+64  -4.9058276322526175e+51  7.8732998179086707e+65  -1.4370381311649856e+69  4.2609024175156149e+49  -1.0709046199125649e+53  -5.0744910808700706e+60  -6.4202371561180098e+62  1.9157545952707801e+48  3.3539735583930228e+56  2.4970230358459904e+56  -5.2482217994540295e+72  1.0312170025283346e+63  8.2689661715769001e+58  4.4285003207983488e+53  2.0017617557467344e+52  -1.9570182421071800e+69  5.0073157047429427e+67  1.8821348424811465e+60  -1.9395443055988161e+73  -1.8215869861713200e+60  1.4858398791455965e+68  1.0578773613565654e+51  1.1120028854303406e+52  -1.5216318146611105e+60  -2.1668893841977503e+60  1.2931107546361714e+57  -3.0525157404340461e+76  -4.0097584183480805e+76  8.3775423533507447e+63  5.1469810876598690e+43  2.8541367650003591e+48  9.5547791029479333e+58  -3.0473995255785945e+52  2.7242429919300797e+45  -4.3383347562713895e+51  -1.7329170547128728e+58  1.3149032237759709e+59  -2.4491938909801506e+78  1.3166708349966798e+42  2.0554698948792956e+55  -1.2340450307102104e+79  -9.6769469190815966e+39  -9.1163843859105570e+47  6.2107356109397324e+64  -9.4996142185665837e+73  1.3630243028993818e+55  -4.3389852180333630e+70  8.1910146039282496e+67  -8.8096223692965849e+58  1.9002772726132093e+45  -8.5879713165869156e+57  7.3018309355404284e+51  1.0571845891379840e+53  -1.4103810572923123e+51  2.6990198178911830e+43  -2.7266462757626601e+77  -3.2852135980717174e+54  2.2556215384549455e+46  8.4577685749291646e+64  -9.9122540835606496e+74  -3.4157463386917777e+48  -7.4516470172352851e+55  7.7708523675893410e+59  -5.1910825448094151e+61  3.3042070566003383e+60  1.3758718158226123e+55  -7.0538207463430753e+68  -5.2660700423886434e+51  -5.1243157577262004e+70  1.8326344452065784e+62  -2.5044257848964356e+62  6.4285561267694650e+58  -3.6407603600834753e+60  -3.4940294242364831e+74  -3.0717908781830583e+57  -3.1863673684436465e+54  1.1565600026805413e+51  -1.3551237367502362e+58  8.1188010038065551e+46  1.6066767859901771e+62  -1.9373151101348203e+66  1.3168191686819865e+55  -7.6325980154472980e+41  2.7620916397827449e+59  4.1254498550033596e+57  -1.9199572798826468e+49  1.2251989771403153e+65  -2.2175100709313962e+48  8.4195570438096309e+55  -3.4058111401862283e+61  4.0082511176589684e+78  -7.0566893493756382e+52  -2.1623679549217262e+63  -1.4206773486075027e+64  -1.4025136830520279e+54  -4.0024432866968846e+40  2.2733622933814074e+70  2.6131443659681817e+69  3.0425736643760506e+71  8.3892767295123580e+52  -2.1926438094664593e+48  -9.1688872143691825e+55  -4.9576432183950088e+48  -1.7415899581948887e+50  8.9399621690321817e+51  7.4205718129434365e+52  -4.1665749765732998e+65  -3.5682226042935930e+64  1.0738931483448909e+65  4.4614138940819257e+63  6.8926856369467021e+62  -3.0389000185024454e+81  1.1572622770386052e+48  -2.2142135512504224e+79  9.1516746127419559e+56  -1.3792880759218748e+41  -4.2928207548588209e+52  2.1378687917723860e+38  3.1265062232771227e+54  2.0810833051862818e+54  1.6204440973470061e+39  2.9187271837858466e+76  5.4993693477349424e+44  4.0325301864430181e+78  -3.1834200804072218e+47  2.1535174072779049e+47  1.0246333939896855e+49  -3.8789695943302198e+54  -1.5682538179750660e+55  2.1136453052544598e+50  2.8744942514854634e+63  -4.5477024525769361e+77  -5.8201453722994588e+56  -2.0087029525877085e+47  -9.8683702807015285e+72  -3.3754482715584428e+70  -1.5348568733454158e+63  -4.1803079573433876e+79  -1.7181579338351460e+66  2.4321721346859452e+56  -1.9576280405351499e+55  -8.3021405747128991e+47  -9.8816541770659116e+44  2.4365572935805333e+59  2.0314894583076678e+55  -1.6118627841173846e+61  6.4513693867946341e+63  -2.6067238196300438e+65  -1.7624882883564887e+69  -6.1700882637080418e+68  5.8400403474202807e+78  2.9301050977289326e+39  4.8862245498428472e+44  -6.2856062681315875e+73  -8.6170866979838318e+56  -7.4866537068331179e+47  -2.1393452354916561e+59  3.8631601791584422e+56  2.1231560957662788e+70  3.8561925365695160e+59  -3.2575344066638863e+63  1.4710329593613417e+53  -9.6088889203710313e+67  -2.8154737280217577e+61  2.2906313373961520e+38  2.7776390516217616e+53  2.0998274201060509e+77  -4.8246417445440550e+46  1.1728341938016824e+60  1.5449153564484672e+69  1.3472839627027854e+55  4.9963773091922748e+48  -6.1345865133715103e+48  1.0156307995682049e+56  -1.1295671674188931e+55  -1.3627423663546858e+59  -4.2181098178658685e+41  2.2255095658743777e+42  -2.5411968492366876e+40  -6.0381367349438148e+52  1.2239320640064070e+54  2.3167797483957430e+43  1.4256498786517206e+63  1.2799984820759804e+51  -1.1552775103157483e+52  2.7049800459165515e+58  3.2980926625855006e+60  -6.3411900474213613e+59  1.7075218916756636e+51  -6.1312296477898783e+67  1.2922782797789003e+80  1.7512262912466645e+69  -1.6604527393350881e+71  9.5311314155555508e+56  -8.0322605525113567e+62  1.3229156949588676e+63  -1.5105625566115509e+51  -3.3738821869455102e+51  -1.6887796706318626e+67  -1.4581837318067571e+66  5.9581542566979653e+50  4.0094737541293259e+50  5.4570574167888124e+60  -8.1060537608920559e+75  -3.1120763073475588e+61  9.5716068338433615e+57  5.8331095538820183e+50  -5.5277403078924595e+59  -4.1163507772364274e+46  5.4958294640283217e+56  -2.3382400163972526e+55  9.9745863997673525e+53  4.8929614347950488e+49  1.4205041337525532e+49  -7.9131520547708222e+55  3.7926254217970532e+66  -6.1718148092571598e+65  2.0277174802163420e+49  6.3430431217055138e+53  1.1515470554024547e+50  1.2449481830962455e+46  3.0638268379852919e+57  -3.6022256731811819e+53  2.1285500884837294e+65  2.6344329294811937e+68  -1.0056790062543638e+69  2.7143194539869085e+52  1.1843538434071860e+52  1.8041346792617511e+45  -5.8423999224030857e+70  -3.7474463605883212e+71  -6.2358618336546618e+71  3.7135922577917863e+54  -1.3210732069968650e+70  2.2808464101867784e+64  -1.2370475288068809e+53  -3.8169740085179182e+61  -1.7928842786483555e+62  -1.1342866608438684e+63  1.9999500606674459e+56  6.2471685315038662e+55  8.1829006040314080e+59  -6.0258520299006562e+59  -1.8425183732946141e+79  -5.7813862867363255e+44  -2.4207521184672670e+63  9.2030467751660882e+55  -6.2585632024872515e+75  6.2767555500096837e+75  -6.8546835571872713e+61  -1.9706295604172396e+61  1.0357616999743938e+59  -3.0385810836043957e+53  1.3272065028162117e+52  1.4527367945446834e+52  5.2063708592251020e+68  -9.0853974905423607e+67  5.0703231379870930e+60  2.6664886537554720e+57  2.1916607475082298e+54  -2.6856509943576295e+57  -5.5920696929417255e+59  8.6315948901024377e+69  -6.8027621030340085e+57  -2.5650241264946100e+50  1.3017490616220629e+58  6.1580113343381038e+75  4.2439411286692070e+51  2.5013118532717806e+37  -1.0794445340553862e+45  -1.1987142112389307e+55  -1.7407500539933090e+59  -1.9377819954488544e+51  4.3589147056318096e+61  -5.2697336810741350e+69  2.1274562729547348e+61  -1.7931161112377459e+52  2.0921641834388314e+51  2.6302369947006229e+49  -3.1839753753196443e+59  -3.3735864529660043e+75  -1.8667489988058361e+76  -2.2623625038627665e+77  -3.5300133189147831e+75  4.6662318941346557e+66  9.1439004873382557e+50  -5.1274023032407618e+53  -3.3499089278682572e+61  -2.2754550732986112e+61  -1.5818947962777705e+62  -2.1588562541900331e+67  -2.7022731713573870e+70  -4.1534273999092119e+52  -2.9793845245765859e+53  -1.9861333203894793e+45  3.0398889766229256e+50  -7.1588348082868792e+60  -2.1012714759831268e+44  -1.3287427982657375e+55  -1.0594586209639014e+59  -2.3862050096741965e+65  -2.8777714825324260e+41  -7.9678551385579956e+52  -8.5903519474097787e+72  -2.5894688266892438e+72  -2.7586399044630805e+78  -2.0556177284753212e+57  2.2147982712332443e+47  -1.4504634733048291e+57  -2.8707919499480033e+53  -4.7684045350115830e+52  -6.5391197986667649e+51  1.7499248572766402e+51  -1.0804191855553669e+67  2.8507014389105875e+40  6.8350462180651299e+76  -4.8002927477958256e+49  -5.7486210635832615e+60  -6.4276985585745569e+48  5.7329790890272756e+56  -8.5100872474994119e+71  -1.7962214788285024e+62  2.3585655954030018e+51  2.9332286867172592e+66  -2.2369150075895314e+45  -8.5824014191585054e+62  -5.3340554790141860e+79  -5.9493227744483130e+50  -6.9056324344449740e+59  2.6170894409407350e+49  -6.7239046114974815e+58  -1.7460945836195316e+52  -1.9293980045193522e+52  4.6417774621477526e+45  1.4092437799081979e+37  3.1583996936871049e+76  -3.4727751848925337e+55  -1.1208143850036955e+64  -5.0684501742372229e+76  1.1437153935426429e+60  2.9298496244287777e+51  1.0406476374076268e+59  -8.9436771402284456e+59  -2.2739056601328974e+67  -2.0921883110436154e+42  -4.2341399714814268e+52  2.5923043343403538e+50  -4.4966038919702005e+56  -3.3625927237941534e+60  2.0173024746931510e+59  -4.7274193319236824e+59  -1.9543082980095234e+49  -1.1743076896333531e+59  -1.5587565664990391e+49  3.2084495494895611e+65  -1.8636359236035918e+56  4.8022979453700299e+48  4.0693995018434418e+54  -5.7610901394299356e+73  3.1787476987276634e+47  -2.9212534491701598e+61  -1.9580890132882626e+74  -4.2123838769305580e+72  -3.7317636231009434e+72  4.4298526871688225e+61  1.0709075439593670e+62  -8.0125707799103354e+78  9.9539604280451800e+53  9.1628513421677340e+46  -3.7068544525550130e+57  4.4636873916714572e+63  2.8534010213771706e+69  -5.0549951861591055e+55  -1.2791451781010229e+51  -1.5289433722657002e+80  4.7315959130241938e+49  1.9739926765898426e+56  1.3932585733379340e+51  6.2558177805839375e+60  -8.4866449217453856e+49  2.6052714943457502e+53  -6.9903462430276044e+45  -8.0771039983575161e+56  -1.8352344046082018e+50  1.4857127618332503e+50  5.9902586226923047e+58  2.0034367468405906e+57  -1.3200698550705911e+58  2.5228609146662507e+78  -2.1303221266706164e+41  -2.3282594829069531e+57  -1.6100340960297367e+48  1.3884764951085461e+64  6.2208059598447142e+56  8.0944116676384981e+57  -2.1098935496889703e+59  4.7110056493742546e+55  2.8958821518902549e+48  1.8651565066768999e+49  -3.8892330347544350e+61  -1.1425291414240832e+48  3.3116014551738556e+53  1.2016271064416993e+75  -2.4629744521475875e+54  -9.6823382871014111e+61  -1.3369161793488404e+44  -5.2031903485735277e+60  -2.2408888809414703e+46  -1.6710942087063856e+45  6.0922230294438294e+77  1.3522602438766401e+78  2.8307874626827168e+41  -5.1050274286896875e+42  -6.6193994808233929e+52  2.6881329001985728e+61  -9.5005724810804272e+65  -4.1596145257153021e+64  1.1827229273462024e+63  -1.2922904539399839e+64  -4.5177089572479736e+60  9.2212805980646998e+80  -2.0915548511790740e+65  4.7782231342905736e+60  -5.4318850886819253e+49  1.8477023916903772e+51  8.4795966919568900e+63  1.7161739574385010e+67  1.3645009737942090e+64  5.4369188127760905e+61  1.4635003258521956e+71  2.3448728490840304e+49  -2.8332886445196395e+52  -2.1667264010743440e+49  -3.8392408186044929e+53  -1.5304255237253536e+55  6.7515594625196202e+47  -2.4619331030421369e+79  4.6845849856176723e+39  2.0684694396005313e+40  1.2114394809702308e+41  -3.1090477847496254e+78  1.0942868722812526e+78  -3.0113105076405542e+74  -3.2392574186697886e+55  -2.7594747057812716e+73  2.8730964155250944e+53  4.9307221673614218e+71  6.8677768521417134e+55  -8.2790307909356165e+54  -4.7749548718620233e+48  1.4247831496771691e+47  -6.1021315988140522e+47  -4.4628066470158485e+63  -3.1207403070658859e+40  6.0166018381053007e+47  1.2034201738632479e+54  -1.0298417668212041e+78  2.9052025805317540e+55  -1.7284570590723217e+61  3.2697697689637523e+58  -3.3497815130120160e+47  -5.7757754095329016e+55  7.1240071014216657e+57  -1.2391963183962829e+48  2.0460671844395928e+68  -1.8413071152676898e+73  -6.0782128703974746e+72  -4.4577563867766969e+74  1.0634124828314188e+48  7.4120007193345607e+63  3.1577087000472473e+43  -1.7860428789396705e+74  1.6819338415240064e+51  2.6967038030418943e+57  -1.9182367304941247e+54  -6.9024828626744616e+55  -1.4328401234722848e+80  -1.0557111087837333e+63  1.8659338010696842e+42  -3.7355587019301890e+72  -4.3258804707612420e+51  6.8566562529157477e+68  6.4117132635714206e+51  -2.0016823038948225e+57  -3.5149587851486713e+68  9.4444579475372635e+63  -2.2857080959914787e+66  -6.9749154078938544e+64  1.5308598197996755e+46  2.9952666543993637e+51  -3.2420579942078351e+58  -1.2886832617073739e+64  -4.0819254290884164e+62  -4.7443938178324700e+62  5.0256862288527005e+62  -2.0905913792399106e+64  2.1302039400603354e+53  1.2218415305042581e+52  1.1033819512024848e+59  3.9948941051617927e+58  2.4487004224845881e+48  -4.3202026885740502e+59  3.4894562173040391e+48  4.4059237674323713e+55  1.5907890585425228e+53  5.5909507733947152e+53  4.5348250483409903e+53  1.1249532609271455e+57  -1.5075006782799240e+61  -7.8894085075308965e+69  2.1404351758644526e+69  -1.2110502324122391e+71  -3.2347991477546894e+62  -1.1496954163709492e+78  8.1585491649147216e+56  1.3741012140084927e+61  6.2431921693419920e+43  2.2025254253401679e+42  -2.0368774253448757e+45  -1.6349888312728393e+59  2.2961699146895764e+58  -2.5489876412294335e+58  6.1867108099178204e+64  -2.5617435084232659e+67  1.5227678888471403e+46  -8.3924236863322752e+51  3.2756923129274561e+77  6.3073769052533705e+55  -3.9578769675231463e+54  1.6818579326070594e+60  2.8397379401851580e+47  -7.3501746217252838e+67  -1.0549065838048549e+53  1.3231101907499232e+69  9.411571357289