<?xml version="1.0"?>
<VTKFile type="UnstructuredGrid"  version="0.1"  >
<UnstructuredGrid>
<Piece  NumberOfPoints="2331" NumberOfCells="4248">
<Points>
<DataArray  type="Float64"  NumberOfComponents="3"  format="ascii">0 0.3 0  0 0 0  0.04999999999999999 0 0  0.0514582251803892 0.02410733605106462 0  0.0558116365147896 0.04786313285751154 0  0.06299675146291706 0.07092097740850717 0  0.07290879486935808 0.09294463440875382 0  0.08540322682126872 0.1136129493462312 0  0.1002978503657798 0.132624531648159 0  0.117375468351841 0.1497021496342203 0  0.1363870506537689 0.1645967731787313 0  0.1570553655912463 0.177091205130642 0  0.1790790225914929 0.187003248537083 0  0.2021368671424885 0.1941883634852104 0  0.2258926639489354 0.1985417748196108 0  0.25 0.2 0  0.2741073360510646 0.1985417748196108 0  0.2978631328575116 0.1941883634852104 0  0.3209209774085071 0.187003248537083 0  0.3429446344087537 0.177091205130642 0  0.3636129493462312 0.1645967731787313 0  0.3826245316481591 0.1497021496342202 0  0.3997021496342202 0.132624531648159 0  0.4145967731787313 0.1136129493462312 0  0.427091205130642 0.09294463440875371 0  0.4370032485370829 0.07092097740850713 0  0.4441883634852104 0.04786313285751155 0  0.4485417748196108 0.02410733605106461 0  0.45 0 0  0.55 0 0  0.5514582251803892 0.02410733605106462 0  0.5558116365147896 0.04786313285751154 0  0.5629967514629171 0.07092097740850717 0  0.5729087948693581 0.09294463440875382 0  0.5854032268212688 0.1136129493462312 0  0.6002978503657798 0.132624531648159 0  0.617375468351841 0.1497021496342203 0  0.6363870506537689 0.1645967731787313 0  0.6570553655912463 0.177091205130642 0  0.6790790225914929 0.187003248537083 0  0.7021368671424885 0.1941883634852104 0  0.7258926639489354 0.1985417748196108 0  0.75 0.2 0  0.7741073360510646 0.1985417748196108 0  0.7978631328575116 0.1941883634852104 0  0.8209209774085071 0.187003248537083 0  0.8429446344087537 0.177091205130642 0  0.8636129493462312 0.1645967731787313 0  0.8826245316481591 0.1497021496342202 0  0.8997021496342202 0.132624531648159 0  0.9145967731787312 0.1136129493462312 0  0.927091205130642 0.09294463440875371 0  0.9370032485370829 0.07092097740850713 0  0.9441883634852104 0.04786313285751155 0  0.9485417748196108 0.02410733605106461 0  0.95 0 0  1 0 0  1 0.3 0  0.9758926639489353 0.3014582251803892 0  0.9521368671424885 0.3058116365147896 0  0.9290790225914928 0.3129967514629171 0  0.9070553655912461 0.3229087948693581 0  0.8863870506537688 0.3354032268212687 0  0.867375468351841 0.3502978503657798 0  0.8502978503657798 0.367375468351841 0  0.8354032268212687 0.3863870506537689 0  0.822908794869358 0.4070553655912464 0  0.8129967514629171 0.4290790225914929 0  0.8058116365147896 0.4521368671424885 0  0.8014582251803892 0.4758926639489354 0  0.8 0.4999999999999999 0  0.8014582251803892 0.5241073360510646 0  0.8058116365147896 0.5478631328575115 0  0.8129967514629171 0.5709209774085071 0  0.8229087948693581 0.5929446344087538 0  0.8354032268212688 0.6136129493462312 0  0.8502978503657798 0.632624531648159 0  0.867375468351841 0.6497021496342202 0  0.8863870506537689 0.6645967731787313 0  0.9070553655912463 0.677091205130642 0  0.9290790225914929 0.6870032485370829 0  0.9521368671424885 0.6941883634852104 0  0.9758926639489354 0.6985417748196108 0  1 0.7 0  1 1 0  0.95 1 0  0.9485417748196108 0.9758926639489353 0  0.9441883634852104 0.9521368671424885 0  0.9370032485370829 0.9290790225914928 0  0.927091205130642 0.9070553655912463 0  0.9145967731787312 0.8863870506537688 0  0.8997021496342201 0.8673754683518409 0  0.882624531648159 0.8502978503657798 0  0.863612949346231 0.8354032268212686 0  0.8429446344087537 0.822908794869358 0  0.8209209774085071 0.8129967514629171 0  0.7978631328575114 0.8058116365147896 0  0.7741073360510646 0.8014582251803892 0  0.75 0.8 0  0.7258926639489353 0.8014582251803892 0  0.7021368671424885 0.8058116365147896 0  0.6790790225914928 0.8129967514629171 0  0.6570553655912461 0.8229087948693581 0  0.6363870506537688 0.8354032268212688 0  0.617375468351841 0.8502978503657798 0  0.6002978503657798 0.867375468351841 0  0.5854032268212687 0.8863870506537689 0  0.572908794869358 0.9070553655912463 0  0.5629967514629171 0.9290790225914929 0  0.5558116365147896 0.9521368671424885 0  0.5514582251803892 0.9758926639489355 0  0.55 0.9999999999999999 0  0.45 0.9999999999999999 0  0.4485417748196108 0.9758926639489353 0  0.4441883634852104 0.9521368671424885 0  0.4370032485370829 0.9290790225914928 0  0.427091205130642 0.9070553655912463 0  0.4145967731787313 0.8863870506537688 0  0.3997021496342201 0.8673754683518409 0  0.382624531648159 0.8502978503657798 0  0.363612949346231 0.8354032268212686 0  0.3429446344087536 0.822908794869358 0  0.3209209774085071 0.8129967514629171 0  0.2978631328575115 0.8058116365147896 0  0.2741073360510646 0.8014582251803892 0  0.25 0.8 0  0.2258926639489353 0.8014582251803892 0  0.2021368671424885 0.8058116365147896 0  0.1790790225914928 0.8129967514629171 0  0.1570553655912462 0.8229087948693581 0  0.1363870506537688 0.8354032268212688 0  0.117375468351841 0.8502978503657798 0  0.1002978503657797 0.867375468351841 0  0.08540322682126869 0.8863870506537689 0  0.07290879486935797 0.9070553655912463 0  0.06299675146291703 0.9290790225914929 0  0.05581163651478957 0.9521368671424885 0  0.0514582251803892 0.9758926639489355 0  0.04999999999999999 0.9999999999999999 0  0 1 0  -0 0.7000000000000001 0  0.0241073360510646 0.6985417748196108 0  0.04786313285751161 0.6941883634852104 0  0.07092097740850711 0.6870032485370829 0  0.09294463440875372 0.677091205130642 0  0.1136129493462312 0.6645967731787312 0  0.1326245316481591 0.6497021496342202 0  0.1497021496342202 0.632624531648159 0  0.1645967731787313 0.6136129493462312 0  0.177091205130642 0.5929446344087537 0  0.187003248537083 0.5709209774085071 0  0.1941883634852104 0.5478631328575115 0  0.1985417748196108 0.5241073360510646 0  0.2 0.5 0  0.1985417748196108 0.4758926639489353 0  0.1941883634852104 0.4521368671424885 0  0.1870032485370829 0.4290790225914928 0  0.177091205130642 0.4070553655912463 0  0.1645967731787313 0.3863870506537688 0  0.1497021496342202 0.3673754683518409 0  0.132624531648159 0.3502978503657798 0  0.113612949346231 0.3354032268212686 0  0.09294463440875361 0.322908794869358 0  0.07092097740850711 0.3129967514629171 0  0.04786313285751148 0.3058116365147896 0  0.02410733605106464 0.3014582251803892 0  0.6985417748196108 0.5241073360510646 0  0.7 0.5 0  0.6985417748196108 0.4758926639489353 0  0.6941883634852104 0.4521368671424885 0  0.6870032485370829 0.4290790225914928 0  0.677091205130642 0.4070553655912463 0  0.6645967731787312 0.3863870506537688 0  0.6497021496342201 0.3673754683518409 0  0.632624531648159 0.3502978503657798 0  0.613612949346231 0.3354032268212686 0  0.5929446344087537 0.322908794869358 0  0.5709209774085071 0.3129967514629171 0  0.5478631328575114 0.3058116365147896 0  0.5241073360510646 0.3014582251803892 0  0.4999999999999999 0.3 0  0.4758926639489353 0.3014582251803892 0  0.4521368671424885 0.3058116365147896 0  0.4290790225914928 0.3129967514629171 0  0.4070553655912462 0.3229087948693581 0  0.3863870506537688 0.3354032268212687 0  0.367375468351841 0.3502978503657798 0  0.3502978503657798 0.367375468351841 0  0.3354032268212687 0.3863870506537689 0  0.322908794869358 0.4070553655912464 0  0.3129967514629171 0.4290790225914929 0  0.3058116365147896 0.4521368671424885 0  0.3014582251803892 0.4758926639489354 0  0.3 0.4999999999999999 0  0.3014582251803892 0.5241073360510646 0  0.3058116365147896 0.5478631328575115 0  0.3129967514629171 0.5709209774085071 0  0.3229087948693581 0.5929446344087538 0  0.3354032268212687 0.6136129493462312 0  0.3502978503657798 0.632624531648159 0  0.367375468351841 0.6497021496342202 0  0.3863870506537689 0.6645967731787313 0  0.4070553655912463 0.677091205130642 0  0.4290790225914929 0.6870032485370829 0  0.4521368671424885 0.6941883634852104 0  0.4758926639489354 0.6985417748196108 0  0.4999999999999999 0.7 0  0.5241073360510646 0.6985417748196108 0  0.5478631328575116 0.6941883634852104 0  0.5709209774085071 0.6870032485370829 0  0.5929446344087537 0.677091205130642 0  0.6136129493462312 0.6645967731787312 0  0.6326245316481591 0.6497021496342202 0  0.6497021496342202 0.632624531648159 0  0.6645967731787312 0.6136129493462312 0  0.677091205130642 0.5929446344087537 0  0.6870032485370829 0.5709209774085071 0  0.6941883634852104 0.5478631328575115 0  0 0.15 0  1 0.15 0  1 0.85 0  0 0.8500000000000001 0  0 0.075 0  1 0.075 0  1 0.925 0  0 0.925 0  0.5 0.8127595604293815 0  0.5069440078039168 0.190422209288238 0  0.25 0.3127595604293815 0  0.756944007803917 0.3095777907117619 0  0.756944007803917 0.6904222092882382 0  0.25 0.6872404395706185 0  0 0.225 0  0.4255768646051012 0.2241073097134061 0  1 0.7749999999999999 0  0.6773391559270888 0.2766774022734219 0  1 0.225 0  0.6755768646051011 0.7241073097134062 0  0 0.7750000000000001 0  0.5818971135297744 0.2287925518358889 0  0.8318971135297746 0.728792551835889 0  0.1659156081861886 0.7301636995921477 0  0.08376842746533225 0.2299656297760495 0  0.4236002201977974 0.7746535834185855 0  0.0840843918138115 0.7698363004078523 0  0.3340843918138113 0.7301636995921477 0  0.3340843918138114 0.2698363004078523 0  0.9159156081861887 0.2301636995921477 0  0.5840843918138116 0.7698363004078522 0  0.1659156081861887 0.2698363004078523 0  0.9162315725346678 0.7700343702239506 0  0.8340843918138114 0.2698363004078523 0  0.75 0.6146645247768686 0  0.5 0.1125158665330878 0  0.75 0.3874841334669124 0  0.2504983345544904 0.6122915843562002 0  0.2504983345544902 0.3877084156437999 0  0.5 0.8879783056303169 0  0.7005361650220154 0.3333055947145943 0  0.70416808765371 0.6599554817221275 0  0.449930214263529 0.1678187287522426 0  0.2247310981387008 0.7415600637745463 0  0.5155081196221678 0.7563797802146907 0  0.2752689018612993 0.2584399362254537 0  0.05605196690611226 0.8246131191226815 0  0.9439480330938878 0.1
[...]
<PointData  Scalars="Temperature"> 
<DataArray  type="Float64"  Name="Temperature"  format="ascii">-5.6034223382485856e+28  3.0736418607022028e+24  9.1517110474114079e+24  -1.4610807672738777e+25  6.3527021882866534e+25  -5.0142426879470835e+26  1.4602070633000670e+27  -1.2704673580338145e+28  -1.7324356122254225e+29  1.4273252442100600e+29  2.1160087653910858e+31  2.5688040445647841e+32  1.9978988863174548e+33  1.3114796958776696e+34  -6.6887233082825536e+34  -2.8026196303665661e+35  2.6062211926746851e+35  -4.8319737538975623e+36  6.9867255085593363e+36  1.6172597029462490e+37  -3.4943840518468869e+38  -9.5568217769182803e+38  -5.6993142473851575e+38  -1.7586059205554325e+39  9.5828182563030987e+38  2.3306450303406992e+38  1.1447868823256622e+38  -2.9283118479301766e+37  2.3530276540360453e+37  5.7378981613855146e+38  -1.0509767480825559e+39  1.9175098992335878e+39  -3.6279525634682417e+40  2.1318955729638052e+41  2.3516230511279382e+42  -1.5841248071515894e+42  -6.2643188755055351e+43  -9.2340343886123954e+43  -3.8104802417391308e+44  9.7413426840611267e+44  -1.4318570492348930e+46  1.1727474287377357e+46  -2.9958318186190820e+44  -4.5174936348334540e+44  -3.0450476487682046e+45  9.6394979378033472e+43  9.8212545085489239e+44  -2.0364431935614140e+43  5.6272449784265347e+43  -2.5523763330809857e+42  3.7119754779853463e+42  -1.1787214552445896e+42  6.6161968893066009e+40  2.5047563573843706e+40  2.2371348811720348e+39  -5.9143241159243241e+38  2.2659105053253800e+37  -5.3910790685987910e+45  -1.5747654647567602e+46  -1.1280695060320157e+47  -7.5397012983296489e+47  -4.0845197464180400e+48  -3.5866689186374830e+49  -7.9269050296655423e+49  3.9754833097253767e+49  -7.2706232088874868e+51  3.8544435546377471e+52  -1.0696238216575968e+53  2.2101151475856090e+54  -8.8544767845802699e+54  -7.6790781396116175e+55  5.2325737473307233e+56  -1.6893507124086256e+57  1.1485459760542612e+58  -9.7971546775270943e+58  8.8103593021907951e+58  -2.9969403291433288e+60  -6.4503867639783482e+61  -1.1913186009351140e+62  -1.9022500651257508e+63  2.8271103839162512e+62  3.4376152336770232e+64  -6.6296755162549682e+64  -2.3969968685514039e+65  -1.6395397203100013e+62  8.6829510305164578e+62  -1.2581805276635918e+63  -1.1977038967300004e+63  -2.0467702244579876e+64  2.3808062942155372e+64  -1.1469767034314056e+65  7.0635105636268309e+64  -5.5243837757134134e+62  -8.9661805811683091e+63  -2.9259487452497520e+63  4.8158670956475906e+62  4.5381422088073026e+61  6.3817802766777243e+59  4.0682457279948949e+59  2.0249994712568273e+58  9.8585234664455471e+56  -7.2844508591818282e+56  2.7712563831672918e+55  1.2515165404706268e+55  -3.8090691106422543e+54  2.2392181226901298e+53  -1.0441465474900231e+53  8.4135168450246059e+51  -3.5671505768192103e+51  -1.0557609895312308e+50  3.2984794462431140e+49  1.9674309487716754e+49  4.3406626414485068e+47  -1.2133966177292850e+47  1.9922907736868928e+48  -2.5631964075020200e+48  -3.2908374125459524e+48  -1.3123890591577084e+48  1.6499787591525196e+48  1.1647072315513016e+48  -9.6967921861343767e+46  -3.1219434610820345e+46  5.5964507218160676e+45  -1.4073996159992392e+45  2.2967228114120499e+44  3.3270280766050278e+43  -7.3703089960152344e+42  1.1872206392699337e+42  1.5108479604218116e+40  -5.2057109783400499e+39  -5.3801381651178154e+38  9.0112998618464745e+35  -5.6578823960761913e+36  4.3863770001704982e+35  2.7945270622388287e+34  1.1094229535072791e+34  3.0333861999639238e+33  1.4114272832514156e+32  -2.1730191151972324e+32  -2.2362823133492446e+32  1.3930366830488193e+35  -2.0206262965947017e+35  -2.3915241267587061e+36  7.8064218463962468e+36  1.0998057944949736e+38  3.0491410911922216e+38  -2.5502416634972237e+39  -4.5453333791174228e+39  2.2121130107288135e+39  -1.0483203371785033e+40  -1.7596283560213611e+39  2.7852112617229667e+38  -2.0733387574128389e+38  7.4456651690542168e+37  3.0277712468535082e+37  -5.1454162766910977e+36  1.2714283398233258e+36  -3.6742431381362526e+35  1.1392619955076687e+35  1.3025691723008127e+34  -6.3973178727770500e+32  2.2970557175789226e+32  8.2381159562257952e+31  -1.3302246399502071e+30  1.8509803409932191e+30  2.4865292713911763e+29  2.1690186601515452e+53  -4.0063562463953152e+54  -1.0002165578164658e+53  -3.6629764516503731e+53  -6.5346033465703965e+51  3.1501421434663599e+51  -4.9660085350380962e+50  3.2468387246510634e+48  1.1552425571102741e+49  3.6422447186496250e+47  1.5423925782575866e+47  2.0394626536587454e+45  -4.4711160149189376e+45  -1.0921437572888710e+45  -2.1303293796406294e+43  -1.4178745994163906e+43  -1.0949553047188144e+42  8.5663098884847526e+41  6.3617218583579758e+40  -1.1324126039462327e+39  6.9663401033759615e+38  4.7279248804191461e+37  -3.2109393469495615e+36  1.1318911968300869e+36  1.7552285779777381e+36  2.7181430318946157e+37  -1.8277669653044198e+38  8.2324984811132372e+38  -6.2574138984393011e+39  8.1282594953243144e+39  4.0956040188132829e+40  4.4627909254486302e+42  -1.1842902130789808e+42  -5.1829843672623089e+44  2.2732403894452341e+45  8.2631729180911472e+45  -2.2029052162069902e+47  -8.6745752239734828e+47  -3.9009617556737621e+48  -4.3983327125410560e+48  -2.8771940957267576e+50  -4.5041942604639971e+50  -4.2702482274129099e+52  6.2739699168814213e+52  -1.9932395773494255e+54  1.9249292203260488e+54  6.8928144855082017e+54  1.0925793519116888e+55  5.5156621802761561e+53  3.8427945458449665e+55  -6.1251449938344202e+55  -4.8876435020182178e+54  7.8399889774552833e+26  5.5224325426287491e+42  1.8340487558233727e+67  -1.4835911719709354e+34  2.3390013395649222e+24  -1.6563889667517737e+40  3.5417757965856517e+64  3.0041125596026868e+33  1.3112187740360497e+51  -1.0711643798019230e+42  2.0019123291583855e+34  3.6941088943613941e+49  -6.6644322688658901e+58  -7.2535073801933182e+42  -5.3125512817435152e+27  5.4852621584097784e+40  1.7624953595532536e+67  -1.8931805267793766e+46  -4.2057784621672153e+44  -2.2312384071401505e+56  -3.9066879071929571e+35  4.3880990294609687e+44  -6.5512651042197826e+61  -2.7017590508830247e+39  -1.0246865801047370e+30  5.2365971787635669e+48  -2.0287928300072626e+37  -3.0896194587151712e+45  3.3309877127234484e+38  -1.0588760954091951e+46  -1.9506341614747187e+54  -1.5896961107429618e+33  -1.2094280240352808e+65  -5.9072161230009636e+46  3.7416328491514165e+57  2.1598791849919312e+40  1.1867513026093102e+51  -1.1293932288343076e+42  1.9753206910641978e+35  2.4256903938558173e+50  8.9074370357796649e+48  -4.2078576005937778e+56  -2.8641159255928313e+40  -5.6694214715726679e+39  -2.6631212166380061e+51  8.3396069722638760e+36  -1.8536417202571163e+36  1.1866033218086582e+43  -1.3049683665384006e+28  -1.9429513822965159e+66  4.2868025357775780e+42  -2.8156596946196825e+58  1.6540458751955027e+47  2.5808984610287915e+49  -7.8945105586963709e+40  -1.7278538915342389e+33  -8.2280784910365470e+43  -6.3776122621184298e+36  4.9829370588184912e+51  -3.5702123050147021e+38  5.7297879171634391e+52  -1.0458034002113491e+56  3.1008684735415069e+36  -7.7935001759394352e+39  -3.6929570006704155e+47  -4.6723226770526037e+49  1.3941889406097313e+35  2.4408516903743207e+43  1.8172066034022219e+43  -3.8193893981663564e+59  7.5046738441491718e+49  6.0177338032479133e+45  3.2228377193953776e+40  1.4567805858261001e+39  -1.4242185280164636e+56  3.6440701721022297e+54  1.3697221912457707e+47  -1.4115018840950452e+60  -1.3256585351526721e+47  1.0813188349569833e+55  7.6986944014938406e+37  8.0925924887261410e+38  -1.1073663886373620e+47  -1.5769520910615979e+47  9.4106036208798989e+43  -2.2214659940558519e+63  -2.9180986203441662e+63  6.0967500364420806e+50  3.7457115476361781e+30  2.0770958465004691e+35  6.9534831800395789e+45  -2.2177426726101590e+39  1.9825657525543564e+32  -3.1572197988132651e+38  -1.2611290603915746e+45  9.5691981482702673e+45  -1.7823989798290454e+65  9.5820619254016709e+28  1.4958666429777776e+42  -8.9807532670299432e+65  -7.0423907147376344e+26  -6.6344417602126185e+34  4.5198580878775377e+51  -6.9133369776479553e+60  9.9193989333274003e+41  -3.1576931718627459e+57  5.9610046095467763e+54  -6.4111959373822461e+45  1.3829253308902475e+32  -6.2498895533990455e+44  5.3139018753566311e+38  7.6936527569748021e+39  -1.0264037351007724e+38  1.9642096069504682e+30  -1.9843147405243168e+64  -2.3908116818714473e+41  1.6415268484168031e+33  6.1551346077998392e+51  -7.2136353236102142e+61  -2.4858067839629310e+35  -5.4229304141580390e+42  5.6552318635950674e+46  -3.7778063493265629e+48  2.4046341567802454e+47  1.0012896610306102e+42  -5.1334126499667647e+55  -3.8323784433030199e+38  -3.7292168711223876e+57  1.3336983150111270e+49  -1.8225939483584709e+49  4.6783768015778092e+45  -2.6495605658307748e+47  -2.5427772395591968e+61  -2.2354934608017151e+44  -2.3188764139051716e+41  8.4168565685254688e+37  -9.8619026236388649e+44  5.9084512173222161e+33  1.1692578014384354e+49  -1.4098795888020898e+53  9.5831414226613379e+41  -5.5546173646277042e+28  2.0101100770641272e+46  3.0022929748331029e+44  -1.3972474411197697e+36  8.9163761798725829e+51  -1.6137912570927589e+35  6.1273261952703231e+42  -2.4785764508537756e+48  2.9170016834211807e+65  -5.1355002736284071e+39  -1.5736616243661580e+50  -1.0338968532258028e+51  -1.0206782595181917e+41  -2.9127750388831742e+27  1.6544376692378730e+57  1.9017138125327143e+56  2.2142306558131689e+58  6.1052897197135924e+39  -1.5956948543414275e+35  -6.6726506534437653e+42  -3.6079210581761158e+35  -1.2674407592633683e+37  6.5060506268926937e+38  5.4003154580160229e+39  -3.0322217505831861e+52  -2.5967712695668107e+51  7.8152491687349317e+51  3.2467905471642318e+50  5.0161466974178694e+49  -2.2115571628400380e+68  8.4219673647918716e+34  -1.6113922174177014e+66  6.6601241957821542e+43  -1.0037758417034361e+28  -3.1240970191164471e+39  1.5558323771330714e+25  2.2753125113210783e+41  1.5145067827271259e+41  1.1792769517424434e+26  2.1241014743415183e+63  4.0021618342284909e+31  2.9346707571483607e+65  -2.3167315272921811e+34  1.5672206450915590e+34  7.4567616833924162e+35  -2.8229171537559166e+41  -1.1412955158699648e+42  1.5382037533575299e+37  2.0919109917107279e+50  -3.3095869795736248e+64  -4.2356063406200009e+43  -1.4618320365151213e+34  -7.1816989196631126e+59  -2.4564798964461519e+57  -1.1169909149739259e+50  -3.0422159168289699e+66  -1.2503881214677408e+53  1.7700114097124348e+43  -1.4246623083557503e+42  -6.0418764497422803e+34  -7.1913662650763279e+31  1.7732027057420705e+46  1.4784148986146532e+42  -1.1730319076067396e+48  4.6949791341024794e+50  -1.8970412648486824e+52  -1.2826495030452869e+56  -4.4902770120364869e+55  4.2500848935388436e+65  2.1323817425062536e+26  3.5559461767929499e+31  -4.5743451513515037e+60  -6.2710782499290797e+43  -5.4484065057227477e+34  -1.5569068579198831e+46  2.8114118639633583e+43  1.5451252238740343e+57  2.8063411674015042e+46  -2.3706681715068719e+50  1.0705431104155082e+40  -6.9928615582598784e+54  -2.0489588509275456e+48  1.6670052028038551e+25  2.0214246941317624e+40  1.5281477980153962e+64  -3.5111293373651613e+33  8.5352918698655933e+46  1.1243109683545605e+56  9.8048487280051543e+41  3.6361097631112569e+35  -4.4644406403980433e+35  7.3912453713857218e+42  -8.2204164164810567e+41  -9.9173471422809870e+45  -3.0697261918950038e+28  1.6196128834156167e+29  -1.8493540622917464e+27  -4.3942493879588627e+39  8.9071562292360384e+40  1.6860346888978171e+30  1.0375156081600802e+50  9.3151791576692976e+37  -8.4075232401553897e+38  1.9685471583346577e+45  2.4001844112152476e+47  -4.6147962041921988e+46  1.2426477499257806e+38  -4.4619976840399608e+54  9.4045452914769179e+66  1.2744535932672499e+56  -1.2083932103312558e+58  6.9362735936370336e+43  -5.8454714701202641e+49  9.6275088459855378e+49  -1.0993107445629323e+38  -2.4553401795675922e+38  -1.2290081129043014e+54  -1.0611920948959846e+53  4.3360422006248385e+37  2.9178914561768205e+37  3.9713693588629459e+47  -5.8991744210464693e+62  -2.2648111510463424e+48  6.9657295483207797e+44  4.2450410138454020e+37  -4.0228087787710719e+46  -2.9956711279516063e+33  3.9995856865700380e+43  -1.7016523825126966e+42  7.2589976190276208e+40  3.5608489396612838e+36  1.0337707962476740e+36  -5.7587903520415512e+42  2.7600802482728156e+53  -4.4915335042385556e+52  1.4756698444453311e+36  4.6161447775843482e+40  8.3803748830725363e+36  9.0601008750790853e+32  2.2296976366425641e+44  -2.6215169769277191e+40  1.5490506979462172e+52  1.9172065483374878e+55  -7.3188212717038492e+55  1.9753439054105552e+39  8.6191260317114831e+38  1.3129576321552243e+32  -4.2518020724268303e+57  -2.7272012210530281e+58  -4.5381436772296008e+58  2.7025639236508883e+41  -9.6141001539423653e+56  1.6598842295154942e+51  -9.0026039239508722e+39  -2.7777999136253191e+48  -1.3047701617185917e+49  -8.2547624937636558e+49  1.4554621261186101e+43  4.5463721179365044e+42  5.9550996523313776e+46  -4.3853092032650077e+46  -1.3408913361131697e+66  -4.2073994457631791e+31  -1.7617005016488552e+50  6.6975102476719062e+42  -4.5546645810244940e+62  4.5679040480116418e+62  -4.9884907129553728e+48  -1.4341241545000707e+48  7.5377478450329805e+45  -2.2113250582120569e+40  9.6587351673305187e+38  1.0572280904719703e+39  3.7889324084426645e+55  -6.6118910708222403e+54  3.6899237834270230e+47  1.9405350771463230e+44  1.5949794317536496e+41  -1.9544804558548643e+44  -4.0696244395103354e+46  6.2816365756404908e+56  -4.9507049144300479e+44  -1.8666943450815282e+37  9.4734688338620391e+44  4.4814880359298053e+62  3.0885249085638086e+38  1.8203277870016719e+24  -7.8556493357591794e+31  -8.7236334987092300e+41  -1.2668295196234278e+46  -1.4102193642321052e+38  3.1721968412107708e+48  -3.8350446535526713e+56  1.5482546745320732e+48  -1.3049388777081018e+39  1.5225708833953864e+38  1.9141529600120074e+36  -2.3171356427397386e+46  -2.4551249593903312e+62  -1.3585251552856231e+63  -1.6464325808336559e+64  -2.5689644913733916e+62  3.3958466899584368e+53  6.6544665819689846e+37  -3.7314631022585235e+40  -2.4378936586205041e+48  -1.6559606882210477e+48  -1.1512227273905199e+49  -1.5711059868461057e+54  -1.9665772324457578e+57  -3.0226536117275400e+39  -2.1682448076818087e+40  -1.4454070039550687e+32  2.2122768763553865e+37  -5.2098365531806641e+47  -1.5291987085748241e+31  -9.6699155457073340e+41  -7.7102020061851301e+45  -1.7365588696630874e+52  -2.0942959940971402e+28  -5.7986004794042059e+39  -6.2516220556585235e+59  -1.8844839569410039e+59  -2.0075980793267997e+65  -1.4959742287641557e+44  1.6118177469377241e+34  -1.0555736826793971e+44  -2.0892166446001570e+40  -3.4702027511654103e+39  -4.7588394291883373e+38  1.2735064756915356e+38  -7.8627423545913693e+53  2.0745957905676397e+27  4.9741996544373799e+63  -3.4934093736155682e+36  -4.1835545796882730e+47  -4.6777527069802689e+35  4.1721711446757254e+43  -6.1932094817241327e+58  -1.3071988065957815e+49  1.7164443070792633e+38  2.1346549320020661e+53  -1.6279131848954051e+32  -6.2458360647909644e+49  -3.8818547927790239e+66  -4.3296150961762820e+37  -5.0255687193892408e+46  1.9045848378248310e+36  -4.8933164353128082e+45  -1.2707189969688213e+39  -1.4041179212492778e+39  3.3780499957945894e+32  1.0255760823548219e+24  2.2985229600043432e+63  -2.5273094831422012e+42  -8.1567181094381219e+50  -3.6885607354913895e+63  8.3233800238222990e+46  2.1321958220074657e+38  7.5733052173119609e+45  -6.5087541943377758e+46  -1.6548331039754362e+54  -1.5225884422413117e+29  -3.0813921239210868e+39  1.8865474954641238e+37  -3.2724000411970367e+43  -2.4471242813988539e+47  1.4680903321462661e+46  -3.4403758009835551e+46  -1.4222463682732766e+36  -8.5460152245041231e+45  -1.1343838983763955e+36  2.3349467042621696e+52  -1.3562596171895790e+43  3.4948686546156406e+35  2.9615023732154533e+41  -4.1926289400932895e+60  2.3133312051005815e+34  -2.1259399620399691e+48  -1.4249977809240507e+61  -3.0655591427613019e+59  -2.7157881208483577e+59  3.2238219029865472e+48  7.7935214556676816e+48  -5.8311422531781629e+65  7.2439870838915797e+40  6.6682580520683426e+33  -2.6976604910461772e+44  3.2484450832951402e+50  2.0765604096417488e+56  -3.6787688782144457e+42  -9.3089692445218922e+37  -1.1126873690886768e+67  3.4434153046831735e+36  1.4365716597209492e+43  1.0139428605065574e+38  4.5526666023353939e+47  -6.1761493470966981e+36  1.8959843362344818e+40  -5.0872191287550409e+32  -5.8781062535167811e+43  -1.3355904334759480e+37  1.0812263254302055e+37  4.3594061284082373e+45  1.4579995593128115e+44  -9.6067982679773919e+44  1.8360100999403223e+65  -1.5503402973806127e+28  -1.6943890569030826e+44  -1.1717010812504282e+35  1.0104627067347743e+51  4.5271867765864408e+43  5.8907018965907079e+44  -1.5354734161159048e+46  3.4284307560693561e+42  2.1074760198624404e+35  1.3573662203575005e+36  -2.8303863646701759e+48  -8.3147470831077190e+34  2.4100154246833416e+40  8.7448320712554265e+61  -1.7924277726725859e+41  -7.0463142786881839e+48  -9.7293972639899377e+30  -3.7866177942499773e+47  -1.6308051681861286e+33  -1.2161375315224596e+32  4.4336106473898116e+64  9.8410635761651380e+64  2.0601034096076730e+28  -3.7151798044271407e+29  -4.8172629064409748e+39  1.9562866609312718e+48  -6.9140343524590619e+52  -3.0271562877980032e+51  8.6072570525588253e+49  -9.4046338888410324e+50  -3.2877592363015462e+47  6.7107798983323006e+67  -1.5221274423096607e+52  3.4773482292766652e+47  -3.9530502163471700e+36  1.3446640015334349e+38  6.1710200032620384e+50  1.2489442841633914e+54  9.9301453944637432e+50  3.9567135052044590e+48  1.0650612421438394e+58  1.7064794214245039e+36  -2.0619236427753845e+39  -1.5768334802182712e+36  -2.7940045676253589e+40  -1.1137660036791703e+42  4.9134422319802870e+34  -1.7916699316580227e+66  3.4092031382398552e+26  1.5053270517003061e+27  8.8162415517941428e+27  -2.2626071460433824e+65  7.9636643386116797e+64  -2.1914789174241403e+61  -2.3573671074812780e+42  -2.0082056053472510e+60  2.0908937176603084e+40  3.5883292838887270e+58  4.9980193483383499e+42  -6.0250583222839352e+41  -3.4749697537954318e+35  1.0368848468121456e+34  -4.4408216011661047e+34  -3.2478041220460423e+50  -2.2711163702109192e+27  4.3785773832649749e+34  8.7578811056936617e+40  -7.4946655768150052e+64  2.1142589546735353e+42  -1.2578833019773086e+48  2.3795724470570555e+45  -2.4378009325564355e+34  -4.2033161341723138e+42  5.1844907161626383e+44  -9.0182417237433257e+34  1.4890238276510416e+55  -1.3400098440110334e+60  -4.4234147648656021e+59  -3.2441287990218886e+61  7.7389762056676287e+34  5.3940778512014938e+50  2.2980200899117494e+30  -1.2997913383162178e+61  1.2240260660100698e+38  1.9625241289163106e+44  -1.3959953126189782e+41  -5.0232766209435685e+42  -1.0427483033256580e+67  -7.6829295149730743e+49  1.3579318957569994e+29  -2.7185499865620182e+59  -3.1481562020643235e+38  4.9899263407620937e+55  4.6661194207750279e+38  -1.4567227648016797e+44  -2.5580085659461166e+55  6.8731970436166389e+50  -1.6634223176392910e+53  -5.0759893502954344e+51  1.1140820623148965e+33  2.1798030155059936e+38  -2.3594052241858510e+45  -9.3783825749735281e+50  -2.9706181071821012e+49  -3.4527289701133524e+49  3.6574393069643972e+49  -1.5214262763432663e+51  1.5502542871654411e+40  8.8919423876727372e+38  8.0298537058576588e+45  2.9072811277982822e+45  1.7820398585090465e+35  -3.1440242004227165e+46  2.5394490917139238e+35  3.2064076499607987e+42  1.1576955199470463e+40  4.0688101466662932e+40  3.3002154584957994e+40  8.1868387472968424e+43  -1.0970824649502951e+48  -5.7415110037082755e+56  1.5577000611920643e+56  -8.8134087983922356e+57  -2.3541226042346623e+49  -8.3668995941910718e+64  5.9373779111500095e+43  1.0000011069153994e+48  4.5434783234162557e+30  1.6028861927312685e+29  -1.4823359875026463e+32  -1.1898618707261028e+46  1.6710358981905563e+45  -1.8550238052022731e+45  4.5023740573196630e+51  -1.8643068777907117e+54  1.1081931657568243e+33  -6.1075799151309358e+38  2.3838825738942100e+64  4.5901887158561289e+42  -2.8803419342104271e+41  1.2239708233538606e+47  2.0666171127604188e+34  -5.3490839559809320e+54  -7.6770745905961808e+39  9.6289242876165005e+55  6.849263852731