<?xml version="1.0"?>
<VTKFile type="UnstructuredGrid"  version="0.1"  >
<UnstructuredGrid>
<Piece  NumberOfPoints="2331" NumberOfCells="4248">
<Points>
<DataArray  type="Float64"  NumberOfComponents="3"  format="ascii">0 0.3 0  0 0 0  0.04999999999999999 0 0  0.0514582251803892 0.02410733605106462 0  0.0558116365147896 0.04786313285751154 0  0.06299675146291706 0.07092097740850717 0  0.07290879486935808 0.09294463440875382 0  0.08540322682126872 0.1136129493462312 0  0.1002978503657798 0.132624531648159 0  0.117375468351841 0.1497021496342203 0  0.1363870506537689 0.1645967731787313 0  0.1570553655912463 0.177091205130642 0  0.1790790225914929 0.187003248537083 0  0.2021368671424885 0.1941883634852104 0  0.2258926639489354 0.1985417748196108 0  0.25 0.2 0  0.2741073360510646 0.1985417748196108 0  0.2978631328575116 0.1941883634852104 0  0.3209209774085071 0.187003248537083 0  0.3429446344087537 0.177091205130642 0  0.3636129493462312 0.1645967731787313 0  0.3826245316481591 0.1497021496342202 0  0.3997021496342202 0.132624531648159 0  0.4145967731787313 0.1136129493462312 0  0.427091205130642 0.09294463440875371 0  0.4370032485370829 0.07092097740850713 0  0.4441883634852104 0.04786313285751155 0  0.4485417748196108 0.02410733605106461 0  0.45 0 0  0.55 0 0  0.5514582251803892 0.02410733605106462 0  0.5558116365147896 0.04786313285751154 0  0.5629967514629171 0.07092097740850717 0  0.5729087948693581 0.09294463440875382 0  0.5854032268212688 0.1136129493462312 0  0.6002978503657798 0.132624531648159 0  0.617375468351841 0.1497021496342203 0  0.6363870506537689 0.1645967731787313 0  0.6570553655912463 0.177091205130642 0  0.6790790225914929 0.187003248537083 0  0.7021368671424885 0.1941883634852104 0  0.7258926639489354 0.1985417748196108 0  0.75 0.2 0  0.7741073360510646 0.1985417748196108 0  0.7978631328575116 0.1941883634852104 0  0.8209209774085071 0.187003248537083 0  0.8429446344087537 0.177091205130642 0  0.8636129493462312 0.1645967731787313 0  0.8826245316481591 0.1497021496342202 0  0.8997021496342202 0.132624531648159 0  0.9145967731787312 0.1136129493462312 0  0.927091205130642 0.09294463440875371 0  0.9370032485370829 0.07092097740850713 0  0.9441883634852104 0.04786313285751155 0  0.9485417748196108 0.02410733605106461 0  0.95 0 0  1 0 0  1 0.3 0  0.9758926639489353 0.3014582251803892 0  0.9521368671424885 0.3058116365147896 0  0.9290790225914928 0.3129967514629171 0  0.9070553655912461 0.3229087948693581 0  0.8863870506537688 0.3354032268212687 0  0.867375468351841 0.3502978503657798 0  0.8502978503657798 0.367375468351841 0  0.8354032268212687 0.3863870506537689 0  0.822908794869358 0.4070553655912464 0  0.8129967514629171 0.4290790225914929 0  0.8058116365147896 0.4521368671424885 0  0.8014582251803892 0.4758926639489354 0  0.8 0.4999999999999999 0  0.8014582251803892 0.5241073360510646 0  0.8058116365147896 0.5478631328575115 0  0.8129967514629171 0.5709209774085071 0  0.8229087948693581 0.5929446344087538 0  0.8354032268212688 0.6136129493462312 0  0.8502978503657798 0.632624531648159 0  0.867375468351841 0.6497021496342202 0  0.8863870506537689 0.6645967731787313 0  0.9070553655912463 0.677091205130642 0  0.9290790225914929 0.6870032485370829 0  0.9521368671424885 0.6941883634852104 0  0.9758926639489354 0.6985417748196108 0  1 0.7 0  1 1 0  0.95 1 0  0.9485417748196108 0.9758926639489353 0  0.9441883634852104 0.9521368671424885 0  0.9370032485370829 0.9290790225914928 0  0.927091205130642 0.9070553655912463 0  0.9145967731787312 0.8863870506537688 0  0.8997021496342201 0.8673754683518409 0  0.882624531648159 0.8502978503657798 0  0.863612949346231 0.8354032268212686 0  0.8429446344087537 0.822908794869358 0  0.8209209774085071 0.8129967514629171 0  0.7978631328575114 0.8058116365147896 0  0.7741073360510646 0.8014582251803892 0  0.75 0.8 0  0.7258926639489353 0.8014582251803892 0  0.7021368671424885 0.8058116365147896 0  0.6790790225914928 0.8129967514629171 0  0.6570553655912461 0.8229087948693581 0  0.6363870506537688 0.8354032268212688 0  0.617375468351841 0.8502978503657798 0  0.6002978503657798 0.867375468351841 0  0.5854032268212687 0.8863870506537689 0  0.572908794869358 0.9070553655912463 0  0.5629967514629171 0.9290790225914929 0  0.5558116365147896 0.9521368671424885 0  0.5514582251803892 0.9758926639489355 0  0.55 0.9999999999999999 0  0.45 0.9999999999999999 0  0.4485417748196108 0.9758926639489353 0  0.4441883634852104 0.9521368671424885 0  0.4370032485370829 0.9290790225914928 0  0.427091205130642 0.9070553655912463 0  0.4145967731787313 0.8863870506537688 0  0.3997021496342201 0.8673754683518409 0  0.382624531648159 0.8502978503657798 0  0.363612949346231 0.8354032268212686 0  0.3429446344087536 0.822908794869358 0  0.3209209774085071 0.8129967514629171 0  0.2978631328575115 0.8058116365147896 0  0.2741073360510646 0.8014582251803892 0  0.25 0.8 0  0.2258926639489353 0.8014582251803892 0  0.2021368671424885 0.8058116365147896 0  0.1790790225914928 0.8129967514629171 0  0.1570553655912462 0.8229087948693581 0  0.1363870506537688 0.8354032268212688 0  0.117375468351841 0.8502978503657798 0  0.1002978503657797 0.867375468351841 0  0.08540322682126869 0.8863870506537689 0  0.07290879486935797 0.9070553655912463 0  0.06299675146291703 0.9290790225914929 0  0.05581163651478957 0.9521368671424885 0  0.0514582251803892 0.9758926639489355 0  0.04999999999999999 0.9999999999999999 0  0 1 0  -0 0.7000000000000001 0  0.0241073360510646 0.6985417748196108 0  0.04786313285751161 0.6941883634852104 0  0.07092097740850711 0.6870032485370829 0  0.09294463440875372 0.677091205130642 0  0.1136129493462312 0.6645967731787312 0  0.1326245316481591 0.6497021496342202 0  0.1497021496342202 0.632624531648159 0  0.1645967731787313 0.6136129493462312 0  0.177091205130642 0.5929446344087537 0  0.187003248537083 0.5709209774085071 0  0.1941883634852104 0.5478631328575115 0  0.1985417748196108 0.5241073360510646 0  0.2 0.5 0  0.1985417748196108 0.4758926639489353 0  0.1941883634852104 0.4521368671424885 0  0.1870032485370829 0.4290790225914928 0  0.177091205130642 0.4070553655912463 0  0.1645967731787313 0.3863870506537688 0  0.1497021496342202 0.3673754683518409 0  0.132624531648159 0.3502978503657798 0  0.113612949346231 0.3354032268212686 0  0.09294463440875361 0.322908794869358 0  0.07092097740850711 0.3129967514629171 0  0.04786313285751148 0.3058116365147896 0  0.02410733605106464 0.3014582251803892 0  0.6985417748196108 0.5241073360510646 0  0.7 0.5 0  0.6985417748196108 0.4758926639489353 0  0.6941883634852104 0.4521368671424885 0  0.6870032485370829 0.4290790225914928 0  0.677091205130642 0.4070553655912463 0  0.6645967731787312 0.3863870506537688 0  0.6497021496342201 0.3673754683518409 0  0.632624531648159 0.3502978503657798 0  0.613612949346231 0.3354032268212686 0  0.5929446344087537 0.322908794869358 0  0.5709209774085071 0.3129967514629171 0  0.5478631328575114 0.3058116365147896 0  0.5241073360510646 0.3014582251803892 0  0.4999999999999999 0.3 0  0.4758926639489353 0.3014582251803892 0  0.4521368671424885 0.3058116365147896 0  0.4290790225914928 0.3129967514629171 0  0.4070553655912462 0.3229087948693581 0  0.3863870506537688 0.3354032268212687 0  0.367375468351841 0.3502978503657798 0  0.3502978503657798 0.367375468351841 0  0.3354032268212687 0.3863870506537689 0  0.322908794869358 0.4070553655912464 0  0.3129967514629171 0.4290790225914929 0  0.3058116365147896 0.4521368671424885 0  0.3014582251803892 0.4758926639489354 0  0.3 0.4999999999999999 0  0.3014582251803892 0.5241073360510646 0  0.3058116365147896 0.5478631328575115 0  0.3129967514629171 0.5709209774085071 0  0.3229087948693581 0.5929446344087538 0  0.3354032268212687 0.6136129493462312 0  0.3502978503657798 0.632624531648159 0  0.367375468351841 0.6497021496342202 0  0.3863870506537689 0.6645967731787313 0  0.4070553655912463 0.677091205130642 0  0.4290790225914929 0.6870032485370829 0  0.4521368671424885 0.6941883634852104 0  0.4758926639489354 0.6985417748196108 0  0.4999999999999999 0.7 0  0.5241073360510646 0.6985417748196108 0  0.5478631328575116 0.6941883634852104 0  0.5709209774085071 0.6870032485370829 0  0.5929446344087537 0.677091205130642 0  0.6136129493462312 0.6645967731787312 0  0.6326245316481591 0.6497021496342202 0  0.6497021496342202 0.632624531648159 0  0.6645967731787312 0.6136129493462312 0  0.677091205130642 0.5929446344087537 0  0.6870032485370829 0.5709209774085071 0  0.6941883634852104 0.5478631328575115 0  0 0.15 0  1 0.15 0  1 0.85 0  0 0.8500000000000001 0  0 0.075 0  1 0.075 0  1 0.925 0  0 0.925 0  0.5 0.8127595604293815 0  0.5069440078039168 0.190422209288238 0  0.25 0.3127595604293815 0  0.756944007803917 0.3095777907117619 0  0.756944007803917 0.6904222092882382 0  0.25 0.6872404395706185 0  0 0.225 0  0.4255768646051012 0.2241073097134061 0  1 0.7749999999999999 0  0.6773391559270888 0.2766774022734219 0  1 0.225 0  0.6755768646051011 0.7241073097134062 0  0 0.7750000000000001 0  0.5818971135297744 0.2287925518358889 0  0.8318971135297746 0.728792551835889 0  0.1659156081861886 0.7301636995921477 0  0.08376842746533225 0.2299656297760495 0  0.4236002201977974 0.7746535834185855 0  0.0840843918138115 0.7698363004078523 0  0.3340843918138113 0.7301636995921477 0  0.3340843918138114 0.2698363004078523 0  0.9159156081861887 0.2301636995921477 0  0.5840843918138116 0.7698363004078522 0  0.1659156081861887 0.2698363004078523 0  0.9162315725346678 0.7700343702239506 0  0.8340843918138114 0.2698363004078523 0  0.75 0.6146645247768686 0  0.5 0.1125158665330878 0  0.75 0.3874841334669124 0  0.2504983345544904 0.6122915843562002 0  0.2504983345544902 0.3877084156437999 0  0.5 0.8879783056303169 0  0.7005361650220154 0.3333055947145943 0  0.70416808765371 0.6599554817221275 0  0.449930214263529 0.1678187287522426 0  0.2247310981387008 0.7415600637745463 0  0.5155081196221678 0.7563797802146907 0  0.2752689018612993 0.2584399362254537 0  0.05605196690611226 0.8246131191226815 0  0.9439480330938878 0.1
[...]
<PointData  Scalars="Temperature"> 
<DataArray  type="Float64"  Name="Temperature"  format="ascii">1.0974588787253576e+02  3.0562800234855615e+01  3.0546945274490160e+01  3.0556689941872332e+01  3.0374586332249748e+01  3.1074491503427431e+01  2.8098109536467721e+01  4.8260710751745272e+01  2.7882223829992171e+02  -1.7574961971333306e+02  -3.0392838350583195e+04  -3.6928938328862196e+05  -2.8723598759817467e+06  -1.8855174459457789e+07  9.6164101804341748e+07  4.0293390580621123e+08  -3.7469756123135233e+08  6.9469503236158829e+09  -1.0044846516288815e+10  -2.3251415125525791e+10  5.0238915952055048e+11  1.3739885452789529e+12  8.1939296083308191e+11  2.5283556049132949e+12  -1.3777260707103425e+12  -3.3507787936919458e+11  -1.6458652254553961e+11  4.2100470555285217e+10  -3.3829583898906696e+10  -8.2494018737520459e+11  1.5109939757419585e+12  -2.7568125663918237e+12  5.2159236420773977e+13  -3.0650358092957238e+14  -3.3809389883259795e+15  2.2775033270338085e+15  9.0062392913458912e+16  1.3275812579328264e+17  5.4783445022630042e+17  -1.4005171986806948e+18  2.0585872898063790e+19  -1.6860642284386109e+19  4.3071208173346355e+17  6.4948208226641702e+17  4.3778786366687724e+18  -1.3858749339175307e+17  -1.4120061574621422e+18  2.9278034961090384e+16  -8.0903152974702256e+16  3.6695628805199410e+15  -5.3367237624291720e+15  1.6946531130919888e+15  -9.5121358870691750e+13  -3.6010994282743102e+13  -3.2163388338209536e+12  8.5030502588444214e+11  -3.2577096754987465e+10  7.7507785116460196e+18  2.2640473585729393e+19  1.6218305789509796e+20  1.0839862310257662e+21  5.8723323249568252e+21  5.1565699610837864e+22  1.1396546848228541e+23  -5.7155701517906916e+22  1.0453007536460935e+25  -5.5415507540318121e+25  1.5378029568769006e+26  -3.1774924419022177e+27  1.2730120912812144e+28  1.1040245018929411e+29  -7.5228947016640981e+29  2.4287870820959613e+30  -1.6512696915707922e+31  1.4085413139671492e+32  -1.2666693010876190e+32  4.3087145278777893e+33  9.2737499275898714e+34  1.7127640858459957e+35  2.7348734346027797e+36  -4.0645492553320346e+35  -4.9422748109342956e+37  9.5315141693758214e+37  3.4461731287647102e+38  2.3571735957624846e+35  -1.2483517568310077e+36  1.8088917772302430e+36  1.7219442541959165e+36  2.9426507146609466e+37  -3.4228958675602559e+37  1.6490135412956118e+38  -1.0155240759170166e+38  7.9424312858419524e+35  1.2890717961241066e+37  4.2066496098996809e+36  -6.9237936830316598e+35  -6.5245073699057612e+34  -9.1751140736610779e+32  -5.8489350958145152e+32  -2.9113508053205772e+31  -1.4173643322234533e+30  1.0472887611192559e+30  -3.9842477084087121e+28  -1.7993109330096561e+28  5.4763157127677052e+27  -3.2193339194978577e+26  1.5011741657498112e+26  -1.2096150833628522e+25  5.1285083536721652e+24  1.5178723010678575e+23  -4.7422386664590455e+22  -2.8285842828215598e+22  -6.2405901118397258e+20  1.7445057494295894e+20  -2.8643253643943540e+21  3.6851189499542152e+21  4.7312516804008791e+21  1.8868276256394736e+21  -2.3721818486397490e+21  -1.6745048009494118e+21  1.3941121536494538e+20  4.4884320902786638e+19  -8.0460422568819763e+18  2.0234247285527163e+18  -3.3020086679096966e+17  -4.7832831601365432e+16  1.0596326238886704e+16  -1.7068724280142292e+15  -2.1721528764431328e+13  7.4842739784500830e+12  7.7350487259592676e+11  -1.2955585925943942e+09  8.1343628725738010e+09  -6.3063136255892229e+08  -4.0177018395155154e+07  -1.5950201342772232e+07  -4.3610909317871705e+06  -2.0289964120888183e+05  3.1243778216257639e+05  3.2153316134762455e+05  -2.0027748410556743e+08  2.9050637070638120e+08  3.4383049668566113e+09  -1.1223327612773209e+10  -1.5811957141082605e+11  -4.3837637969315619e+11  3.6664938565265044e+12  6.5348461476776680e+12  -3.1803647786633857e+12  1.5071748418725076e+13  2.5298255649602842e+12  -4.0043106995376599e+11  2.9808484136779010e+11  -1.0704666143729158e+11  -4.3530402737729034e+10  7.3975880414782658e+09  -1.8279381901794178e+09  5.2824760714327168e+08  -1.6379218040360770e+08  -1.8727068151513804e+07  9.1977284639881121e+05  -3.3022071610319015e+05  -1.1841136367845221e+05  1.9411970480035491e+03  -2.6321887149012068e+03  -3.2835840407263618e+02  -3.1184078379380995e+26  5.7599563110526821e+27  1.4380158229308439e+26  5.2662776429091115e+26  9.3948284854022887e+24  -4.5289734621821570e+24  7.1396527025948768e+23  -4.6679945698414800e+21  -1.6608973961342021e+22  -5.2364715375623668e+20  -2.2175047147265088e+20  -2.9321445874084224e+18  6.4281435108903506e+18  1.5701799691509775e+18  3.0627840861436988e+16  2.0384846591058484e+16  1.5742221434777348e+15  -1.2315822076233082e+15  -9.1462759958429688e+13  1.6280746702900828e+12  -1.0015538353206193e+12  -6.7973587639825035e+10  4.6163818990818338e+09  -1.6273250156150947e+09  -2.5234999591051588e+09  -3.9078864029964783e+10  2.6277887487935101e+11  -1.1835899921205798e+12  8.9963119749300859e+12  -1.1686035064903949e+13  -5.8882682329988797e+13  -6.4161744924892260e+15  1.7026593411603862e+15  7.4515998279385677e+17  -3.2682478847221806e+18  -1.1880000696818516e+19  3.1671266912818397e+20  1.2471475633746577e+21  5.6084301799134803e+21  6.3235026312260569e+21  4.1365548320162000e+23  6.4757002525947759e+23  6.1393549935503036e+25  -9.0201146367376831e+25  2.8656894636675747e+27  -2.7674793575640322e+27  -9.9098302434887286e+27  -1.5708062254902718e+28  -7.9298922090369275e+26  -5.5248029219402836e+28  8.8061483786152883e+28  7.0269869437985163e+27  2.8881033795554625e+01  -7.9396259893006100e+15  -2.6368201068959033e+40  2.1329679278963611e+07  3.0405683808400997e+01  2.3813978328043477e+13  -5.0920269185328441e+37  -4.3190039830608163e+06  -1.8851451014809448e+24  1.5400178242177760e+15  -2.8781556775266659e+07  -5.3110368951681103e+22  9.5814841082031663e+31  1.0428400032923416e+16  3.7145715018937594e+01  -7.8861859615026656e+13  -2.5339474687489200e+40  2.7218341187198542e+19  6.0466665234390515e+17  3.2078614467281478e+29  5.6166629248457730e+08  -6.3087896192479411e+17  9.4187831689659841e+34  3.8843310826818599e+12  1.5023299814948241e+03  -7.5286792070471562e+21  2.9168045364900166e+10  4.4419597273681039e+18  -4.7889759464572369e+11  1.5223509027342754e+19  2.8044354665290624e+27  2.2855411338006961e+06  1.7388000845091651e+38  8.4928310653963813e+19  -5.3793622977244336e+30  -3.1052679735831992e+13  -1.7061976605961524e+24  1.6237337011498832e+15  -2.8399271422598428e+08  -3.4874259385497154e+23  -1.2806262103053322e+22  6.0496557100627763e+29  4.1177522882688172e+13  8.1509526305043037e+12  3.8287812953912737e+24  -1.1989890252381920e+10  2.6649890223450747e+09  -1.7059849079365782e+16  4.8469996763578550e+01  2.7933899005103828e+39  -6.1631551967962930e+15  4.0480865480680648e+31  -2.3780291595823586e+20  -3.7105692715580106e+22  1.1349973172295323e+14  2.4841703902807422e+06  1.1829545281931664e+17  9.1691217260163307e+09  -7.1639909170193930e+24  5.1329102142362195e+11  -8.2377417395553663e+25  1.5035562303246405e+29  -4.4581324610049448e+09  1.1204750092825557e+13  5.3093808124518210e+20  6.7174192297996135e+22  -2.0044314099645334e+08  -3.5092234024282544e+16  -2.6126060689612548e+16  5.4911532363428536e+32  -1.0789503182571895e+23  -8.6517228290518538e+18  -4.6334882171355797e+13  -2.0944199699160452e+12  2.0476053536545997e+29  -5.2390960001633355e+27  -1.9692557263107935e+20  2.0293225777590502e+33  1.9059052106820721e+20  -1.5546169298535336e+28  -1.1068447404147211e+11  -1.1634756449619429e+12  1.5920656143892070e+20  2.2671910810004803e+20  -1.3529666955022427e+17  3.1938116046878300e+36  4.1953634501795680e+36  -8.7653248212541001e+23  -5.3565783694667653e+03  -2.9862497642565370e+08  -9.9970538972173640e+18  3.1884585687998486e+12  -2.8500587825438031e+05  4.5391490391929547e+11  1.8131308959332165e+18  -1.3757679017045721e+19  2.5625629927237261e+38  -1.0856172247581688e+02  -2.1506141692879268e+15  1.2911669176943187e+39  3.1105492400725787e+01  9.5383688660438135e+07  -6.4982202073908831e+24  9.9393355223129292e+33  -1.4261164253497058e+15  4.5398296095119867e+30  -8.5701630133031462e+27  9.2174051007436124e+18  -1.9879599523284935e+05  8.9854941903563674e+17  -7.6398205151654822e+11  -1.1061199011536492e+13  1.4756652451755170e+11  -2.7946233886964005e+03  2.8528581858095043e+37  3.4372806581853944e+14  -2.3600040221681832e+06  -8.8492645808705414e+24  1.0371075798675095e+35  3.5738558003281879e+08  7.7965713337482960e+15  -8.1305521675683938e+19  5.4313691008673597e+21  -3.4571532922418423e+20  -1.4395586282258650e+15  7.3803303480606670e+28  5.5098276449280737e+11  5.3615117905283919e+30  -1.9174640381769630e+22  2.6203514789228651e+22  -6.7261232717325445e+18  3.8092850870175754e+20  3.6557622207905296e+34  3.2139789564263578e+17  3.3338590013912806e+14  -1.2100952366496637e+11  1.4178501551659264e+18  -8.4945789648467898e+06  -1.6810471756480828e+22  2.0269901965537021e+26  -1.3777725325058645e+15  1.0934877012698649e+02  -2.8899442566330589e+19  -4.3164100505486374e+17  2.0088289243223259e+09  -1.2819113950534364e+25  2.3201551434917960e+08  -8.8092843016844450e+15  3.5634604594553726e+21  -4.1937863790546425e+38  7.3833317339682861e+12  2.2624603623017114e+23  1.4864381344204283e+24  1.4674337030703734e+14  3.3949538333990667e+01  -2.3785924436310563e+30  -2.7341024618490804e+29  -3.1834093265052458e+31  -8.7776023620998066e+12  2.2941378955523074e+08  9.5932997165027760e+15  5.1871245119216138e+08  1.8222052559954659e+10  -9.3537781122645776e+11  -7.7640577100376963e+12  4.3594387854293293e+25  3.7333896794523268e+24  -1.1236018717108940e+25  -4.6679253048530621e+23  -7.2117365631062393e+22  3.1795656336891108e+41  -1.2108297848831895e+08  2.3167058048438076e+39  -9.5752903722444032e+16  4.3719155956994641e+01  4.4915282703258652e+12  3.0504016761067408e+01  -3.2712269836193175e+14  -2.1774131816533491e+14  3.0060480475243448e+01  -3.0538301988141595e+36  -5.7517338922863753e+04  -4.2191892854529034e+38  3.3307775205170050e+07  -2.2531979155461185e+07  -1.0720619400424205e+09  4.0585206295585575e+14  1.6408456725050740e+15  -2.2114824198356812e+10  -3.0075497978258842e+23  4.7582080168544014e+37  6.0895501978237168e+16  2.1016851699798092e+07  1.0325160687747828e+33  3.5316921442619911e+30  1.6059028389902558e+23  4.3738074429826716e+39  1.7976885999575124e+26  -2.5447533277105420e+16  2.0482433786351225e+15  8.6864354523384705e+07  1.0341904431952756e+05  -2.5493414682991063e+19  -2.1255237182892885e+15  1.6864732249821319e+21  -6.7499925195283931e+23  2.7273847191257431e+25  1.8440709326789269e+29  6.4556913622259851e+28  -6.1103660781725771e+38  2.9995777291162323e+01  -5.1095061849269805e+04  6.5765565024744782e+33  9.0159572742149488e+16  7.8332011203063443e+07  2.2383719595743486e+19  -4.0419794229168280e+16  -2.2214334515627523e+30  -4.0346892597694046e+19  3.4083202431557775e+23  -1.5391246224371686e+13  1.0053668367873367e+28  2.9457973127342483e+21  3.0442246431878786e+01  -2.9062113322423340e+13  -2.1970249304014398e+37  5.0479883715710174e+06  -1.2271227332003471e+20  -1.6164269125059235e+29  -1.4096474910488178e+15  -5.2276510585851431e+08  6.4185465222508574e+08  -1.0626426559484558e+16  1.1818529483041630e+15  1.4258214384324436e+19  7.3787783520175651e+01  -2.0341838679774759e+02  3.2517565789863255e+01  6.3176320172181826e+12  -1.2805858386226109e+14  -2.3951059545179251e+03  -1.4916408345898372e+23  -1.3392474774721129e+11  1.2087533801304758e+12  -2.8301890623072927e+18  -3.4507558731224089e+20  6.6347131622343524e+19  -1.7865602328920767e+11  6.4150340457648120e+27  -1.3520956867717923e+40  -1.8322876364996988e+29  1.7373123282142457e+31  -9.9723115978027984e+16  8.4040605015321839e+22  -1.3841512568195651e+23  1.5804839790716882e+11  3.5300535684332178e+11  1.7669504659320784e+27  1.5256806255646710e+26  -6.2339472808823677e+10  -4.1950656067962944e+10  -5.7096555062184916e+20  8.4812694744955568e+35  3.2561291309401579e+21  -1.0014660555719653e+18  -6.1031144671767540e+10  5.7836101905038107e+19  4.3069172370574400e+06  -5.7502222468811208e+16  2.4464732482765815e+15  -1.0436293373871816e+14  -5.1194484355547390e+09  -1.4862568751425166e+09  8.2794386700174030e+15  -3.9681797292377290e+26  6.4574978266899400e+25  -2.1215771156692932e+09  -6.6366520122352023e+13  -1.2048502461214674e+10  -1.3025474224567455e+06  -3.2056462740860781e+17  3.7689666937087672e+13  -2.2270771232098500e+25  -2.7563764374733029e+28  1.0522302107144565e+29  -2.8399607759813574e+12  -1.2391756081550923e+12  -1.8873625562142077e+05  6.1128348739472773e+30  3.9209094046113913e+31  6.5245094810630726e+31  -3.8854882518401169e+14  1.3822234831617300e+30  -2.3864229877252902e+24  1.2943083964243199e+13  3.9936553714422231e+21  1.8758739026830609e+22  1.1867908992110973e+23  -2.0925244145170392e+16  -6.5363395471043480e+15  -8.5616734298792935e+19  6.3047786736365380e+19  1.9278054768170083e+39  6.0518892958792385e+04  2.5328046979813563e+23  -9.6290404664156820e+15  6.5482616584095789e+35  -6.5672960993672894e+35  7.1719754304344996e+21  2.0618467171954736e+21  -1.0837053821707846e+19  3.1792319358286668e+13  -1.3886406789940876e+12  -1.5199815586333411e+12  -5.4473650858675946e+28  9.5059453925599896e+27  -5.3050199424418926e+20  -2.7899159677786605e+17  -2.2931090694177969e+14  2.8099653011784630e+17  5.8509172755324756e+19  -9.0311370263576012e+29  7.1176506187356045e+17  2.6837548190127041e+10  -1.3620048553161129e+18  -6.4430554119310272e+35  -4.4403860875144159e+11  3.0561613258221328e+01  1.1296287337194459e+05  1.2542006934957842e+15  1.8213264716906070e+19  2.0274786934602109e+11  -4.5606815998635179e+21  5.5136608670970196e+29  -2.2259326767837031e+21  1.8761164664393853e+12  -2.1890069750532101e+11  -2.7519862542545271e+09  3.3313562868934459e+19  3.5297441451910148e+35  1.9531576975841255e+36  2.3670834921952252e+37  3.6934117499585849e+35  -4.8822239886411210e+26  -9.5671563930112244e+10  5.3647412070910977e+13  3.5049706269333368e+21  2.3807820948413932e+21  1.6551180689501925e+22  2.2587861107981150e+27  2.8273568910378840e+30  4.3456826293863975e+12  3.1172952667802867e+13  2.0783493921792883e+05  -3.1806003664941193e+10  7.4902053358449643e+20  2.2014166172745565e+04  1.3902480870231755e+15  1.1084991941237076e+19  2.4966584611216491e+25  5.9503725309681904e+01  8.3366738683719258e+12  8.9879850166108809e+32  2.7093310213304609e+32  2.8863327462404192e+38  2.1507688458546614e+17  -2.3173148320573471e+07  1.5176030091684547e+17  3.0036761229252895e+13  4.9891260307379482e+12  6.8418047518936560e+11  -1.8309259610709494e+11  1.1304299883031685e+27  2.6904384696735480e+01  -7.1514291116251304e+36  5.0224903213307810e+09  6.0147151481074523e+20  6.7252262380546200e+08  -5.9983491326286768e+16  8.9040049975646614e+31  1.8793655762955253e+22  -2.4677396641948169e+11  -3.0690029521383373e+26  2.3407271200511846e+05  8.9796664716720010e+22  5.5809600138218480e+39  6.2247070088893402e+10  7.2252826462748639e+19  -2.7382301225678892e+09  7.0351429453926615e+18  1.8269183907054861e+12  2.0187066213393479e+12  -4.8564186009138194e+05  3.0534107500224113e+01  -3.3045967495997277e+36  3.6335241581439560e+15  1.1726950141842172e+24  5.3030602823227742e+36  -1.1966560722262450e+20  -3.0654674784569025e+11  -1.0888174815016172e+19  9.3576650435162636e+19  2.3791609619235333e+27  2.4796798267331647e+02  4.4301312513261553e+12  -2.7122977775769615e+10  4.7047441890723256e+16  3.5182415346253142e+20  -2.1106800428568146e+19  4.9462436909093757e+19  2.0447699941809399e+09  1.2286644346973465e+19  1.6309088322591746e+09  -3.3569633297806034e+25  1.9499005233211104e+16  -5.0245880445598155e+08  -4.2577652199918244e+14  6.0277613966857443e+33  -3.3258839569105357e+07  3.0564734008118021e+21  2.0487256890483889e+34  4.4073681034082804e+32  3.9045007393530976e+32  -4.6349031822930325e+21  -1.1204780686761756e+22  8.3834593221856577e+38  -1.0414712660307753e+14  -9.5869569327950403e+06  3.8784385648329344e+17  -4.6703040388554783e+23  -2.9854801972639998e+29  5.2889824852796480e+15  1.3383546759434323e+11  1.5997156118049670e+40  -4.9506135728220434e+09  -2.0653655064084760e+16  -1.4577501895284305e+11  -6.5453891555037230e+20  8.8794775888289547e+09  -2.7258651681232156e+13  7.3141983301686996e+05  8.4509796757203920e+16  1.9201843476387131e+10  -1.5544839261673475e+10  -6.2675377069523630e+18  -2.0961724935798934e+17  1.3811736877476462e+18  -2.6396399401133640e+38  5.1970560156608904e+01  2.4360307325312390e+17  1.6845601534645739e+08  -1.4527467571005560e+24  -6.5087566959566672e+16  -8.4690884881558054e+17  2.2075570043397865e+19  -4.9290702463607550e+15  -3.0299274526115233e+08  -1.9514914648693380e+09  4.0692591475278422e+21  1.1954151338304007e+08  -3.4648899651949316e+13  -1.2572484217608833e+35  2.5769814330919022e+14  1.0130517583329810e+22  1.4016589709118110e+04  5.4440373546807185e+20  2.3446441223628256e+06  1.7487319827194128e+05  -6.3742218760901205e+37  -1.4148541159814289e+38  -4.1878134178751697e-01  5.6342203213979860e+02  6.9258004464826758e+12  -2.8125620903027928e+21  9.9403381412008470e+25  4.3521561469060728e+24  -1.2374691997334445e+23  1.3521084244544947e+24  4.7268261726339452e+20  -9.6481183025755835e+40  2.1883694380514471e+25  -4.9993991165841211e+20  5.6833180185886040e+09  -1.9332294545299432e+11  -8.8721030850420857e+23  -1.7956127886012933e+27  -1.4276614488782673e+24  -5.6885847198025384e+21  -1.5312433158842700e+31  -2.4534130783558807e+09  2.9644368520379463e+12  2.2670205765475688e+09  4.0169528750452727e+13  1.6012663695845585e+15  -7.0640752760189280e+07  2.5758918816723400e+39  2.9633210494204931e+01  2.7856630704205486e+01  1.7347650756318991e+01  3.2529604230805461e+38  -1.1449395871264077e+38  3.1506990503686149e+34  3.3891972438601410e+15  2.8872061891197913e+33  -3.0060872583670691e+13  -5.1589570756386054e+31  -7.1856747921822680e+15  8.6622533228604650e+14  4.9959797979817754e+08  -1.4907317411805356e+07  6.3845913512995228e+07  4.6693825259981971e+23  3.3461289996326173e+01  -6.2950980705875717e+07  -1.2591244872836430e+14  1.0775114251820669e+38  -3.0396795642245920e+15  1.8084644545304925e+21  -3.4211219599768361e+18  3.5048399142120890e+07  6.0431264234574720e+15  -7.4537655124961626e+17  1.2965568841100235e+08  -2.1407762230588591e+28  1.9265381516755144e+33  6.3595632101402493e+32  4.6640984976327335e+34  -1.1126358000621089e+08  -7.7550898748188469e+23  -3.2746445875031695e+03  1.8687158259883275e+34  -1.7597877545805875e+11  -2.8215297259487072e+17  2.0070287105284997e+14  7.2219872860783130e+15  1.4991639038550605e+40  1.1045782158528395e+23  -1.6615401452567315e+02  3.9084714860539220e+32  4.5261182655387897e+11  -7.1740394389592283e+28  -6.7085007802263037e+11  2.0943368403952986e+17  3.6776603669244218e+28  -9.8816261594581167e+23  2.3915097128601453e+26  7.2977726130512313e+24  -1.6016932801587689e+06  -3.1339125536625879e+11  3.3921274533705093e+18  1.3483342613076052e+24  4.2708709515251077e+22  4.9640038974698031e+22  -5.2583168652054847e+22  2.1873613686025902e+24  -2.2288075288162461e+13  -1.2783985377868271e+12  -1.1544556620869439e+19  -4.1798110927187185e+18  -2.5620464485053608e+08  4.5201776680795636e+19  -3.6509770660779911e+08  -4.6098666327579440e+15  -1.6644240317836963e+13  -5.8497465630628625e+13  -4.7447345390441320e+13  -1.1770254717734094e+17  1.5772803712653732e+21  8.2545960735626760e+29  -2.2395123514697459e+29  1.2671077285216955e+31  3.3845326070175085e+22  1.2029129003409580e+38  -8.5361948032463520e+16  -1.4377060682058668e+21  -6.5029448138236030e+03  -2.0090874280274889e+02  2.1314426966969125e+05  1.7106697383030260e+19  -2.4024557917030979e+18  2.6669760292888284e+18  -6.4730833383855165e+24  2.6803223443075664e+27  -1.5932265966321880e+06  8.7808949865769678e+11  -3.4273186486261377e+37  -6.5993348660910390e+15  4.1410804934966150e+14  -1.7597083321945227e+20  -2.9711819472228065e+07  7.6904019502321039e+27  1.1037364507564506e+13  -1.3843547554965124e+29  -9.8472173035363293e+11  -1.7071288770462603e+21  -7.579633004158