<?xml version="1.0"?>
<VTKFile type="UnstructuredGrid"  version="0.1"  >
<UnstructuredGrid>
<Piece  NumberOfPoints="2331" NumberOfCells="4248">
<Points>
<DataArray  type="Float64"  NumberOfComponents="3"  format="ascii">0 0.3 0  0 0 0  0.04999999999999999 0 0  0.0514582251803892 0.02410733605106462 0  0.0558116365147896 0.04786313285751154 0  0.06299675146291706 0.07092097740850717 0  0.07290879486935808 0.09294463440875382 0  0.08540322682126872 0.1136129493462312 0  0.1002978503657798 0.132624531648159 0  0.117375468351841 0.1497021496342203 0  0.1363870506537689 0.1645967731787313 0  0.1570553655912463 0.177091205130642 0  0.1790790225914929 0.187003248537083 0  0.2021368671424885 0.1941883634852104 0  0.2258926639489354 0.1985417748196108 0  0.25 0.2 0  0.2741073360510646 0.1985417748196108 0  0.2978631328575116 0.1941883634852104 0  0.3209209774085071 0.187003248537083 0  0.3429446344087537 0.177091205130642 0  0.3636129493462312 0.1645967731787313 0  0.3826245316481591 0.1497021496342202 0  0.3997021496342202 0.132624531648159 0  0.4145967731787313 0.1136129493462312 0  0.427091205130642 0.09294463440875371 0  0.4370032485370829 0.07092097740850713 0  0.4441883634852104 0.04786313285751155 0  0.4485417748196108 0.02410733605106461 0  0.45 0 0  0.55 0 0  0.5514582251803892 0.02410733605106462 0  0.5558116365147896 0.04786313285751154 0  0.5629967514629171 0.07092097740850717 0  0.5729087948693581 0.09294463440875382 0  0.5854032268212688 0.1136129493462312 0  0.6002978503657798 0.132624531648159 0  0.617375468351841 0.1497021496342203 0  0.6363870506537689 0.1645967731787313 0  0.6570553655912463 0.177091205130642 0  0.6790790225914929 0.187003248537083 0  0.7021368671424885 0.1941883634852104 0  0.7258926639489354 0.1985417748196108 0  0.75 0.2 0  0.7741073360510646 0.1985417748196108 0  0.7978631328575116 0.1941883634852104 0  0.8209209774085071 0.187003248537083 0  0.8429446344087537 0.177091205130642 0  0.8636129493462312 0.1645967731787313 0  0.8826245316481591 0.1497021496342202 0  0.8997021496342202 0.132624531648159 0  0.9145967731787312 0.1136129493462312 0  0.927091205130642 0.09294463440875371 0  0.9370032485370829 0.07092097740850713 0  0.9441883634852104 0.04786313285751155 0  0.9485417748196108 0.02410733605106461 0  0.95 0 0  1 0 0  1 0.3 0  0.9758926639489353 0.3014582251803892 0  0.9521368671424885 0.3058116365147896 0  0.9290790225914928 0.3129967514629171 0  0.9070553655912461 0.3229087948693581 0  0.8863870506537688 0.3354032268212687 0  0.867375468351841 0.3502978503657798 0  0.8502978503657798 0.367375468351841 0  0.8354032268212687 0.3863870506537689 0  0.822908794869358 0.4070553655912464 0  0.8129967514629171 0.4290790225914929 0  0.8058116365147896 0.4521368671424885 0  0.8014582251803892 0.4758926639489354 0  0.8 0.4999999999999999 0  0.8014582251803892 0.5241073360510646 0  0.8058116365147896 0.5478631328575115 0  0.8129967514629171 0.5709209774085071 0  0.8229087948693581 0.5929446344087538 0  0.8354032268212688 0.6136129493462312 0  0.8502978503657798 0.632624531648159 0  0.867375468351841 0.6497021496342202 0  0.8863870506537689 0.6645967731787313 0  0.9070553655912463 0.677091205130642 0  0.9290790225914929 0.6870032485370829 0  0.9521368671424885 0.6941883634852104 0  0.9758926639489354 0.6985417748196108 0  1 0.7 0  1 1 0  0.95 1 0  0.9485417748196108 0.9758926639489353 0  0.9441883634852104 0.9521368671424885 0  0.9370032485370829 0.9290790225914928 0  0.927091205130642 0.9070553655912463 0  0.9145967731787312 0.8863870506537688 0  0.8997021496342201 0.8673754683518409 0  0.882624531648159 0.8502978503657798 0  0.863612949346231 0.8354032268212686 0  0.8429446344087537 0.822908794869358 0  0.8209209774085071 0.8129967514629171 0  0.7978631328575114 0.8058116365147896 0  0.7741073360510646 0.8014582251803892 0  0.75 0.8 0  0.7258926639489353 0.8014582251803892 0  0.7021368671424885 0.8058116365147896 0  0.6790790225914928 0.8129967514629171 0  0.6570553655912461 0.8229087948693581 0  0.6363870506537688 0.8354032268212688 0  0.617375468351841 0.8502978503657798 0  0.6002978503657798 0.867375468351841 0  0.5854032268212687 0.8863870506537689 0  0.572908794869358 0.9070553655912463 0  0.5629967514629171 0.9290790225914929 0  0.5558116365147896 0.9521368671424885 0  0.5514582251803892 0.9758926639489355 0  0.55 0.9999999999999999 0  0.45 0.9999999999999999 0  0.4485417748196108 0.9758926639489353 0  0.4441883634852104 0.9521368671424885 0  0.4370032485370829 0.9290790225914928 0  0.427091205130642 0.9070553655912463 0  0.4145967731787313 0.8863870506537688 0  0.3997021496342201 0.8673754683518409 0  0.382624531648159 0.8502978503657798 0  0.363612949346231 0.8354032268212686 0  0.3429446344087536 0.822908794869358 0  0.3209209774085071 0.8129967514629171 0  0.2978631328575115 0.8058116365147896 0  0.2741073360510646 0.8014582251803892 0  0.25 0.8 0  0.2258926639489353 0.8014582251803892 0  0.2021368671424885 0.8058116365147896 0  0.1790790225914928 0.8129967514629171 0  0.1570553655912462 0.8229087948693581 0  0.1363870506537688 0.8354032268212688 0  0.117375468351841 0.8502978503657798 0  0.1002978503657797 0.867375468351841 0  0.08540322682126869 0.8863870506537689 0  0.07290879486935797 0.9070553655912463 0  0.06299675146291703 0.9290790225914929 0  0.05581163651478957 0.9521368671424885 0  0.0514582251803892 0.9758926639489355 0  0.04999999999999999 0.9999999999999999 0  0 1 0  -0 0.7000000000000001 0  0.0241073360510646 0.6985417748196108 0  0.04786313285751161 0.6941883634852104 0  0.07092097740850711 0.6870032485370829 0  0.09294463440875372 0.677091205130642 0  0.1136129493462312 0.6645967731787312 0  0.1326245316481591 0.6497021496342202 0  0.1497021496342202 0.632624531648159 0  0.1645967731787313 0.6136129493462312 0  0.177091205130642 0.5929446344087537 0  0.187003248537083 0.5709209774085071 0  0.1941883634852104 0.5478631328575115 0  0.1985417748196108 0.5241073360510646 0  0.2 0.5 0  0.1985417748196108 0.4758926639489353 0  0.1941883634852104 0.4521368671424885 0  0.1870032485370829 0.4290790225914928 0  0.177091205130642 0.4070553655912463 0  0.1645967731787313 0.3863870506537688 0  0.1497021496342202 0.3673754683518409 0  0.132624531648159 0.3502978503657798 0  0.113612949346231 0.3354032268212686 0  0.09294463440875361 0.322908794869358 0  0.07092097740850711 0.3129967514629171 0  0.04786313285751148 0.3058116365147896 0  0.02410733605106464 0.3014582251803892 0  0.6985417748196108 0.5241073360510646 0  0.7 0.5 0  0.6985417748196108 0.4758926639489353 0  0.6941883634852104 0.4521368671424885 0  0.6870032485370829 0.4290790225914928 0  0.677091205130642 0.4070553655912463 0  0.6645967731787312 0.3863870506537688 0  0.6497021496342201 0.3673754683518409 0  0.632624531648159 0.3502978503657798 0  0.613612949346231 0.3354032268212686 0  0.5929446344087537 0.322908794869358 0  0.5709209774085071 0.3129967514629171 0  0.5478631328575114 0.3058116365147896 0  0.5241073360510646 0.3014582251803892 0  0.4999999999999999 0.3 0  0.4758926639489353 0.3014582251803892 0  0.4521368671424885 0.3058116365147896 0  0.4290790225914928 0.3129967514629171 0  0.4070553655912462 0.3229087948693581 0  0.3863870506537688 0.3354032268212687 0  0.367375468351841 0.3502978503657798 0  0.3502978503657798 0.367375468351841 0  0.3354032268212687 0.3863870506537689 0  0.322908794869358 0.4070553655912464 0  0.3129967514629171 0.4290790225914929 0  0.3058116365147896 0.4521368671424885 0  0.3014582251803892 0.4758926639489354 0  0.3 0.4999999999999999 0  0.3014582251803892 0.5241073360510646 0  0.3058116365147896 0.5478631328575115 0  0.3129967514629171 0.5709209774085071 0  0.3229087948693581 0.5929446344087538 0  0.3354032268212687 0.6136129493462312 0  0.3502978503657798 0.632624531648159 0  0.367375468351841 0.6497021496342202 0  0.3863870506537689 0.6645967731787313 0  0.4070553655912463 0.677091205130642 0  0.4290790225914929 0.6870032485370829 0  0.4521368671424885 0.6941883634852104 0  0.4758926639489354 0.6985417748196108 0  0.4999999999999999 0.7 0  0.5241073360510646 0.6985417748196108 0  0.5478631328575116 0.6941883634852104 0  0.5709209774085071 0.6870032485370829 0  0.5929446344087537 0.677091205130642 0  0.6136129493462312 0.6645967731787312 0  0.6326245316481591 0.6497021496342202 0  0.6497021496342202 0.632624531648159 0  0.6645967731787312 0.6136129493462312 0  0.677091205130642 0.5929446344087537 0  0.6870032485370829 0.5709209774085071 0  0.6941883634852104 0.5478631328575115 0  0 0.15 0  1 0.15 0  1 0.85 0  0 0.8500000000000001 0  0 0.075 0  1 0.075 0  1 0.925 0  0 0.925 0  0.5 0.8127595604293815 0  0.5069440078039168 0.190422209288238 0  0.25 0.3127595604293815 0  0.756944007803917 0.3095777907117619 0  0.756944007803917 0.6904222092882382 0  0.25 0.6872404395706185 0  0 0.225 0  0.4255768646051012 0.2241073097134061 0  1 0.7749999999999999 0  0.6773391559270888 0.2766774022734219 0  1 0.225 0  0.6755768646051011 0.7241073097134062 0  0 0.7750000000000001 0  0.5818971135297744 0.2287925518358889 0  0.8318971135297746 0.728792551835889 0  0.1659156081861886 0.7301636995921477 0  0.08376842746533225 0.2299656297760495 0  0.4236002201977974 0.7746535834185855 0  0.0840843918138115 0.7698363004078523 0  0.3340843918138113 0.7301636995921477 0  0.3340843918138114 0.2698363004078523 0  0.9159156081861887 0.2301636995921477 0  0.5840843918138116 0.7698363004078522 0  0.1659156081861887 0.2698363004078523 0  0.9162315725346678 0.7700343702239506 0  0.8340843918138114 0.2698363004078523 0  0.75 0.6146645247768686 0  0.5 0.1125158665330878 0  0.75 0.3874841334669124 0  0.2504983345544904 0.6122915843562002 0  0.2504983345544902 0.3877084156437999 0  0.5 0.8879783056303169 0  0.7005361650220154 0.3333055947145943 0  0.70416808765371 0.6599554817221275 0  0.449930214263529 0.1678187287522426 0  0.2247310981387008 0.7415600637745463 0  0.5155081196221678 0.7563797802146907 0  0.2752689018612993 0.2584399362254537 0  0.05605196690611226 0.8246131191226815 0  0.9439480330938878 0.1
[...]
<PointData  Scalars="Temperature"> 
<DataArray  type="Float64"  Name="Temperature"  format="ascii">2.6006327356765166e+01  2.6932399001996632e+01  2.6925961391224906e+01  2.6910871288914763e+01  2.6867412695195426e+01  2.6796639098026379e+01  2.6697197360240146e+01  2.6566692725426496e+01  2.6406915871782598e+01  2.6216886059465839e+01  2.5993466048558677e+01  2.5739922272965202e+01  2.5462729668573434e+01  2.5166417399974890e+01  2.4854918230290618e+01  2.4538198225429749e+01  2.4221897196377721e+01  2.3910665115843226e+01  2.3617082782753410e+01  2.3339189293328715e+01  2.3087595894719680e+01  2.2864555565569979e+01  2.2666491218856372e+01  2.2503503380392903e+01  2.2371659413028979e+01  2.2276634267777833e+01  2.2208200322887663e+01  2.2170891036644594e+01  2.2158192859825338e+01  2.1872725927822600e+01  2.1857654335954884e+01  2.1811637640072771e+01  2.1733091567346417e+01  2.1623365411630910e+01  2.1458637208743376e+01  2.1366613614897567e+01  2.2112472781850080e+01  2.2393317178254581e+01  2.6500875985302979e+01  6.3687328045309144e+00  2.3184145410553177e+02  -1.5250182079010250e+02  2.4828475132725796e+01  2.6994941980629140e+01  6.5186955138456995e+01  1.8792695503474999e+01  5.6852036416046454e+00  2.0442123857571158e+01  1.9287245210864739e+01  2.0136932231051794e+01  2.0031478325937350e+01  2.0094523609225945e+01  2.0070178931854393e+01  2.0066944311372133e+01  2.0065120703151706e+01  2.0064456793866849e+01  2.0062519519961064e+01  9.9600153489494787e+01  2.5238551255602854e+02  1.6842230808928675e+03  1.1142724721034141e+04  6.0275244630012930e+04  5.2912802317542327e+05  1.1694026701067507e+06  -5.8644583362292487e+05  1.0725675474050477e+08  -5.6861014861198401e+08  1.5779164515593271e+09  -3.2603770911637951e+10  1.3062185161090349e+11  1.1328228979832058e+12  -7.7191288439479580e+12  2.4921418104034176e+13  -1.6943429372410944e+14  1.4452830081696765e+15  -1.2997102745079540e+15  4.4211070221691480e+16  9.5156549967357440e+17  1.7574414081646083e+18  2.8062124023847907e+19  -4.1705727168589727e+18  -5.0711936775429417e+20  9.7801429993756452e+20  3.5360662955539416e+21  2.4186602916647910e+18  -1.2809149184875622e+19  1.8560765831463965e+19  1.7668610405152627e+19  3.0194095371610482e+20  -3.5121818487422432e+20  1.6920279354559302e+21  -1.0420139450338393e+21  8.1496090083803576e+18  1.3226971369420279e+20  4.3163797484844802e+19  -7.1044003203383839e+18  -6.6946986537751014e+17  -9.4144462339780320e+15  -6.0015041277412220e+15  -2.9872931720402044e+14  -1.4543361741913525e+13  1.0746072096617721e+13  -4.0881765099229047e+11  -1.8462458231221106e+11  5.6191649981543961e+10  -3.3033099822378349e+09  1.5403322012703714e+09  -1.2411675983266640e+08  5.2622871422123156e+07  1.5574862129881689e+06  -4.8657364422031242e+05  -2.9021645734004822e+05  -6.3830178904307795e+03  1.8103817050227790e+03  -2.9370006563974985e+04  3.7832905219177635e+04  4.8567182529749138e+04  1.9381059910573535e+04  -2.4319895703188726e+04  -1.7161023277909604e+04  1.4514202403257277e+03  4.8162999701238004e+02  -6.1339952306690421e+01  4.2121663651207506e+01  1.8104868271874984e+01  2.1120530077249722e+01  2.1817520818898934e+01  2.1760078413277334e+01  2.1815079242513725e+01  2.1820592627298812e+01  2.1791958745594954e+01  2.1737008018854901e+01  2.1657371871641061e+01  2.1558934932345096e+01  2.1450846896100963e+01  2.1342809095129393e+01  2.1245501448926184e+01  2.1175761039034686e+01  2.1146118366088338e+01  2.1147218447511481e+01  2.2318169273006337e+01  2.2320187349886659e+01  2.2328871240261201e+01  2.2343716577909177e+01  2.2365528942256397e+01  2.2395177101122133e+01  2.2434923972828283e+01  2.2489271360230585e+01  2.2558688408038478e+01  2.2643726118292896e+01  2.2753360205719062e+01  2.2885467468946771e+01  2.3042724850734515e+01  2.3220706241774174e+01  2.3419085253959281e+01  2.3637134027739602e+01  2.3875362080830001e+01  2.4134198956711547e+01  2.4411591313977222e+01  2.4698039472047242e+01  2.4983547915875391e+01  2.5255087885281998e+01  2.5502773007925313e+01  2.5713383655890151e+01  2.5871394586213750e+01  2.5971837866388370e+01  -3.1997512514987731e+09  5.9102043401023590e+10  1.4755263777949386e+09  5.4036481193556232e+09  9.6398939177896008e+07  -4.6471093508639567e+07  7.3259105062830877e+06  -4.7877004348526076e+04  -1.7040148865545809e+05  -5.3522497902157065e+03  -2.2543839427150697e+03  -8.9470524090481831e+00  8.7296514617106268e+01  3.7671892896142090e+01  2.2115311644911475e+01  2.2263437412206130e+01  2.2326365861617173e+01  2.2550222148274393e+01  2.2793722254759871e+01  2.3004723679805068e+01  2.3174357689218631e+01  2.3301366977914277e+01  2.3373645260234305e+01  2.3397604803805738e+01  2.3362281080946055e+01  2.3281547314299864e+01  2.3156216791979759e+01  2.2998631164493858e+01  2.2818846535500782e+01  2.2622166499797405e+01  2.2418031553201018e+01  2.2139270695068241e+01  2.2010946662129911e+01  2.9431523193853618e+01  -1.1949327573602300e+01  -1.0049989512877976e+02  3.2709655697667308e+03  1.2817861200964520e+04  5.7568183758891944e+04  6.4905311185181134e+04  4.2444772498534191e+06  6.6446390103918947e+06  6.2994998119119418e+08  -9.2554034437988937e+08  2.9404407597664120e+10  -2.8396688463570538e+10  -1.0168327417786148e+11  -1.6117805874987506e+11  -8.1367428304169760e+09  -5.6689169902950061e+11  9.0358560967390686e+11  7.2102853715754120e+10  2.6581574463125218e+01  1.9987932661908744e+01  -2.7056013610017751e+23  2.1668463642065422e+01  2.6835577696125856e+01  2.0065458740545935e+01  -5.2248520576015316e+20  2.1322374963746004e+01  -1.9343169140724748e+07  2.1859690303562388e+01  2.4188635621248036e+01  -5.4493713448702812e+05  9.8314164002979938e+14  2.2102692564282556e+01  2.6242287982510476e+01  2.2572668015547023e+01  -2.6000452978284040e+23  2.9992150254443442e+02  2.6274471752418904e+01  3.2915382712412236e+12  2.2065793380157228e+01  1.4741488013817758e+01  9.6644714193015014e+17  2.2089532622263551e+01  2.5999214007719544e+01  -7.7229762857715075e+04  2.2049287820342705e+01  6.6986522733777392e+01  2.3471038555328587e+01  1.7631370999861340e+02  2.8775889567208939e+10  2.5205247063025006e+01  1.7841565538940748e+21  8.9164281278985641e+02  -5.5196825585394859e+13  2.1975752592908187e+01  -1.7507016652287968e+07  2.2417286854561592e+01  2.3798956725689052e+01  -3.5783747444038624e+06  -1.3138262901990241e+05  6.2074605241310674e+12  2.2367878641757002e+01  2.1848784704205180e+01  3.9286568270507976e+07  2.4139420478356193e+01  2.1795063177735450e+01  1.9910689900917681e+01  2.6383023846782539e+01  2.8662552659030778e+22  2.1918308341062531e+01  4.1536805811147612e+14  -2.4196160330292555e+03  -3.8071524121151387e+05  2.2278446808670559e+01  2.4671275213211732e+01  2.2983878340239194e+01  2.3589086426481625e+01  -7.3508610402613476e+07  2.2004201083285032e+01  -8.4526224101033247e+08  1.5427763814920764e+12  2.3472881120957570e+01  2.2809135924576267e+01  5.4682089916596760e+03  6.8928462705603743e+05  2.4698117593615564e+01  2.1289165625461521e+01  2.1170480683656500e+01  5.6343895553831550e+15  -1.1070744193017599e+06  -6.7908631080759591e+01  2.2888949998328130e+01  2.3233370666570202e+01  2.1010169852723467e+12  -5.3757574231240166e+10  -1.9997526632704773e+03  2.0822573045227744e+16  1.9759224733582130e+03  -1.5951689953037079e+11  2.2013566407582225e+01  2.3147456995253975e+01  1.6547000143545129e+03  2.3475132630342714e+03  2.0186032679601535e+01  3.2771219401080648e+19  4.3047991901371892e+19  -8.9939469504790977e+06  2.5672744860325295e+01  2.2195062258632277e+01  -8.2453622471993086e+01  2.1960848238545438e+01  2.5582857297293160e+01  2.2216412134391252e+01  3.8684010937522473e+01  -1.2100296490820340e+02  2.6294072555931875e+21  2.6030335567395824e+01  2.0053949697137305e+01  1.3248469096007723e+22  2.6633963186837263e+01  2.1580246730929989e+01  -6.6677237661403172e+07  1.0198602341621478e+17  2.1639233203877197e+01  4.6582507233217344e+13  -8.7937150686899689e+10  1.1607189845209145e+02  2.5120286081128235e+01  2.9335263437234438e+01  2.3239597803648724e+01  2.2310847914519993e+01  2.1846232041033677e+01  2.6133519502074801e+01  2.9272747769500991e+20  2.2450390019510998e+01  2.4245918713830033e+01  -9.0800949370432183e+07  1.0641604530610342e+18  2.3804563598218369e+01  2.2163143950787141e+01  -8.1366347679016872e+02  5.5751142081280370e+04  -3.5264557179900644e+03  2.2331314751083070e+01  7.5728457101300696e+11  2.2845809789989850e+01  5.5013664222102688e+13  -1.9672754653963156e+05  2.6889118690843240e+05  -4.7792810407951436e+01  3.9291311300489742e+03  3.7511225032767085e+17  2.4366518123733488e+01  2.1880787273830979e+01  2.3691516660483373e+01  3.5952071187870565e+01  2.5135878254850574e+01  -1.7246953750253463e+05  2.0798641037966969e+09  2.2163939846704594e+01  2.6234026340349736e+01  -2.7630668076566121e+02  1.5653714868035978e+01  2.1999206558979203e+01  -1.3153497523711632e+08  2.1866180781824582e+01  1.9979746868433214e+01  3.6584399021897436e+04  -4.3031809812306178e+21  2.2286413035631075e+01  2.3214968479615077e+06  1.5252138039820094e+07  2.2037998399339862e+01  2.6417995666340538e+01  -2.4406378485665367e+13  -2.8054213188445684e+12  -3.2664483192815050e+14  2.2676787687304348e+01  2.3921463337461773e+01  2.2219168283564439e+01  2.3518937035516849e+01  2.2255901772594754e+01  2.2155503480291291e+01  2.1835369036322028e+01  4.4731546209241694e+08  3.8307769044671647e+07  -1.1529107382359657e+08  -4.7896674182436336e+06  -7.3996496037294099e+05  3.2625043640276480e+24  2.2237704221713535e+01  2.3771369014646129e+22  1.9087189653785973e+01  2.6083429133235359e+01  2.0063288116255706e+01  2.6907571245355062e+01  2.0064202209378848e+01  2.0067643104007288e+01  2.6723769843922629e+01  -3.1334891297937531e+19  2.1198544491318401e+01  -4.3292465205310836e+21  2.1484558933031085e+01  2.1410573848234371e+01  2.3495904010826560e+01  2.2512234489799546e+01  2.2066133873379080e+01  2.3781999133731627e+01  -3.0859809492815998e+06  4.8823255149878352e+20  2.2226688468973645e+01  2.4657751491687190e+01  1.0594491727468998e+16  3.6238160681383625e+13  1.6478134224050692e+06  4.4878978810672329e+22  1.8445811923315742e+09  2.1421607178719178e+01  2.2250302306341812e+01  2.4133264679434227e+01  2.5551602861933752e+01  -2.4054551442395967e+02  2.1672681228172493e+01  1.7324999576752653e+04  -6.9260452587399678e+06  2.7985285499357718e+08  1.8921733842385122e+12  6.6240875859153357e+11  -6.2697545176051907e+21  2.6767510273321090e+01  2.5874030707037694e+01  6.7481054840509400e+16  2.2710516236024290e+01  2.4566255425373420e+01  2.4983460612173403e+02  2.1017124205860561e+01  -2.2793793760140625e+13  -3.9389428765756054e+02  3.4972465383695923e+06  2.2900962926669717e+01  1.0315917552888123e+11  3.0247383250350595e+04  2.6869584816046022e+01  2.0066111861715260e+01  -2.2543341604166684e+20  2.1258617428531625e+01  -1.2381183740137617e+03  -1.6585912868856855e+12  2.2254443732021031e+01  2.1664867063818651e+01  2.1764985152214976e+01  1.9980658873695297e+01  2.0085514520926473e+01  1.6751949758954544e+02  2.6346340408240067e+01  2.6200529591265820e+01  2.6482940124107721e+01  2.2648064436098963e+01  2.2461886741204960e+01  2.5839276505753091e+01  -1.5305295174132879e+06  2.2328641234594084e+01  2.1856826258698128e+01  -8.8931327196552239e+00  -3.5201925482390079e+03  7.0114059012500400e+02  2.3148772844826446e+01  6.5823697282471130e+10  -1.3873650010356239e+23  -1.8800827216244229e+12  1.7826299895883328e+14  2.0211940875453539e+01  8.6234831104999362e+05  -1.4202365393986215e+06  2.2091466877038080e+01  2.1931881980584588e+01  1.8130412379247509e+10  1.5654779102112131e+09  2.3240812285377025e+01  2.3487062894847014e+01  -5.8380545519039051e+03  8.7025027506451282e+18  3.3431025443448620e+04  1.0539738084288572e+01  2.3805746238087366e+01  6.1476202933701279e+02  2.4891875199353120e+01  2.1014270345363542e+01  2.1741475257583808e+01  2.2003443751066683e+01  2.4065535998740945e+01  2.4328919116888919e+01  2.1959504208037004e+01  -4.0716893785232949e+09  6.6259413753357279e+08  2.3874750488373564e+01  2.2190161498461833e+01  2.3432986769644724e+01  2.4817723204562906e+01  1.8409641502109519e+01  2.2444326340602498e+01  -2.2851700576764640e+08  -2.8282763092647418e+11  1.0796775566161031e+12  2.2948401666897958e+01  2.3033853942871584e+01  2.5411848619522349e+01  6.2722877117339672e+13  4.0231860314392638e+14  6.6947008200019962e+14  2.2593889871778860e+01  1.4182786787297412e+13  -2.4486705933945432e+07  2.2646148390213238e+01  4.0998945782152034e+04  1.9250135567912343e+05  1.2177686791936199e+06  2.1725554036579563e+01  2.1851529957766310e+01  -8.5800560999876473e+02  6.6763895987022102e+02  1.9780921376403498e+22  2.5868291053196582e+01  2.5988929437477230e+06  2.1346614078926372e+01  6.7190725711073833e+18  -6.7386035240254157e+18  7.3610847005735835e+04  2.1176516973651909e+04  -9.1009485925528637e+01  2.1873829245559477e+01  2.2958926773353241e+01  2.3182397277128260e+01  -5.5894591940941382e+11  9.7539072649745255e+10  -5.4223139067072225e+03  1.8385203757155068e+01  2.1846498223839852e+01  2.3917883181983289e+01  6.2048739696335974e+02  -9.2667135562077148e+12  2.7401545038113539e+01  2.1909083449243770e+01  7.4710404798128147e+00  -6.6111220276046807e+18  2.0063425366827328e+01  2.6929697260699925e+01  2.1146388962746194e+01  2.2100588759528723e+01  2.0792066900314450e+02  2.3245747927279403e+01  -4.6775699591037395e+04  5.6574842960124316e+12  -2.2819806899937681e+04  2.1867377013370998e+01  2.2144526155692343e+01  2.3652165107289903e+01  3.6210655363425451e+02  3.6218172556562120e+18  2.0041056691787899e+19  2.4288286870004023e+20  3.7897541175805332e+18  -5.0095764136399546e+09  2.3476701556523501e+01  2.2602660215327017e+01  3.5984316967632643e+04  2.4449163980662976e+04  1.6984957098959864e+05  2.3177063785924133e+10  2.9011082828249867e+13  2.2880177414230332e+01  2.2679512917725827e+01  2.5337348922227889e+01  2.3490288987953129e+01  7.7066007241308544e+03  2.5784442439168462e+01  2.2169149568283455e+01  1.3500314349060702e+02  2.5617838123918617e+08  2.6163543360010895e+01  2.2489138409418352e+01  9.2224359295535460e+15  2.7800037171839845e+15  2.9616225187713825e+21  2.4155933780202762e+01  2.4988848733437635e+01  2.3080410533490646e+01  2.1984405191865218e+01  2.2090982319900188e+01  2.2050512774058117e+01  2.3285602607877149e+01  1.1599171715287800e+10  2.6499550421748371e+01  -7.3379736019604611e+19  2.3681682199197354e+01  6.1924211954350076e+03  2.1964717961614145e+01  1.9458643216315735e+01  9.1362652980289600e+14  1.9285948824256533e+05  2.3297939622766435e+01  -3.1490576428992438e+09  2.4532950642393025e+01  9.2141030667648336e+05  5.7265389358960133e+22  2.2307079144297145e+01  7.6213939974723110e+02  2.3353822944127142e+01  9.2312490648181864e+01  2.1992584792089271e+01  2.0064527276745999e+01  2.1182768011552369e+01  2.6912146476427438e+01  -3.3907969071900131e+19  2.1765449020130838e+01  1.2032867075948622e+07  5.4413902108087140e+19  -1.2076810518249347e+03  2.2210377013138068e+01  -9.1042013070721254e+01  9.8027261810874313e+02  2.4412211986586342e+10  2.5946440756348967e+01  2.2369978155903244e+01  2.2158711222148820e+01  2.2377228530474774e+01  3.6302662967456999e+03  -1.9542291325630885e+02  5.2886797517514651e+02  2.2290233873974259e+01  1.4615179815725611e+02  2.2095294659836831e+01  -3.4445292631091464e+08  2.1842244402447331e+01  2.4347592365205337e+01  2.2322185222345844e+01  6.1849950992165856e+16  2.4411637154160069e+01  3.1382662132695514e+04  2.1021665445102890e+17  4.5223339687951100e+15  4.0063493473820365e+15  -4.7537623685567873e+04  -1.1495014744706919e+05  8.6021412278710231e+21  2.1793315176417238e+01  2.4956413258430210e+01  2.5424775988674302e+01  -4.7921080673221629e+06  -3.0633562235752402e+12  2.2365080407462301e+01  2.1932365928228172e+01  1.6414440731834780e+23  2.4030561340533794e+01  2.1697220748208590e+01  2.1917846091145542e+01  -6.6957754172451068e+03  2.2112132802408730e+01  2.1650047676004014e+01  2.5308627784796077e+01  2.0973116729614699e+01  2.1768635434826866e+01  2.2157150164241983e+01  -4.4219923355444308e+01  1.7919150077587087e+01  3.4246178290807435e+01  -2.7084947493565602e+21  2.6363799607522612e+01  2.3449775604387106e+01  2.4167383467159997e+01  -1.4906395074926697e+07  2.1105435672830485e+01  1.2691797053408527e+01  2.4740565738213164e+02  2.2121810196949994e+01  2.3612253476330658e+01  2.4460804487565323e+01  4.1774198065175078e+04  2.1488430794199068e+01  2.0078916257357445e+01  -1.2900436522527882e+18  2.2318131036269136e+01  1.0396854329006579e+05  2.5629647255617581e+01  5.6061606468932941e+03  2.5412545399459997e+01  2.5633173417026470e+01  -6.5404929741600942e+20  -1.4517604791495305e+21  2.6021894024899591e+01  2.6097097375473783e+01  2.3027054863980347e+01  -2.8838498142787510e+04  1.0199631317272843e+09  4.4656838414439224e+07  -1.2697276751126989e+06  1.3873801366217611e+07  4.8704981635160675e+03  -9.8997887426171555e+23  2.2454530942032021e+08  -5.1088251328510296e+03  2.3599711138318629e+01  2.3337531901129214e+01  -9.1035109752762504e+06  -1.8424512110696999e+10  -1.4648998550387548e+07  -5.8348941309266913e+04  -1.5711856825750372e+14  2.3453313799215245e+01  2.2288403465508434e+01  2.1885163415849629e+01  2.2552148446994288e+01  2.2396245323730046e+01  2.4034086978920232e+01  2.6430838276072235e+22  2.6655938895373346e+01  2.6589115050311296e+01  2.6586156202897673e+01  3.3378136509784617e+21  -1.1748052501164829e+21  3.2328847980530259e+17  2.1812750789120432e+01  2.9625187453425536e+16  2.2652268416495048e+01  -5.2935280828196662e+14  2.0006852547064593e+01  2.0080850433410586e+01  2.1693613245963927e+01  2.1574587609616607e+01  2.1641889519186510e+01  4.7912033588257683e+06  2.6698194833870165e+01  2.1504981558075425e+01  2.0068820388517626e+01  1.1056182296408187e+21  2.1528918894218069e+01  1.8576898654144006e+04  -1.3750031175307443e+01  2.3906752203955381e+01  2.2312251644870599e+01  1.2421899785668913e+01  2.2295107615416573e+01  -2.1966182095723038e+11  1.9767917544178880e+16  6.5254519380117920e+15  4.7857611560376467e+17  2.4846411717380356e+01  -7.9573603007965824e+06  2.6068240260421959e+01  1.9174611377154438e+17  2.1804200498134442e+01  1.7233725516546546e+01  2.2539328073446789e+01  2.1652105989489797e+01  1.5382694814967566e+23  1.1334116562430172e+06  2.5941863563957764e+01  4.0104236707118100e+15  2.0062594306256550e+01  -7.3611737177788098e+11  2.3440142474357650e+01  2.3682808315543369e+01  3.7735918611074542e+11  -1.0139367002293514e+07  2.4538920842506938e+09  7.4881365025198445e+07  2.4918249448951087e+01  2.3097334552735635e+01  5.6104544251268393e+01  1.3835075048027575e+07  4.3824780311282101e+05  5.0936927661597281e+05  -5.3952750265365490e+05  2.2444205711299080e+07  2.1820915474909480e+01  2.2375567559700013e+01  -9.7001402741403382e+01  -2.2815530764823194e+01  2.2268715142202751e+01  4.8392523933023620e+02  2.4022160151204250e+01  2.2032231660872764e+01  2.2147870367732292e+01  2.2082034912056248e+01  2.2345989573647703e+01  1.9028638375032827e+01  1.6205197471319318e+04  8.4699165911230010e+12  -2.2979298626467676e+12  1.3001601382888872e+14  3.4730236385487131e+05  1.2342907928445838e+21  1.9222826217000222e+01  -1.4731389518654882e+04  2.6069318335711547e+01  2.6271093535840429e+01  2.5370864456591093e+01  1.9610762697132375e+02  -3.0384479624892875e+00  4.8839759468770907e+01  -6.6419312061570823e+07  2.7502383530355698e+10  2.5040593397484251e+01  2.3127810066650838e+01  -3.5167199977194796e+20  2.2092300257398286e+01  2.2459231161234985e+01  -1.7854342133704686e+03  2.4782005715795538e+01  7.8910055085471130e+10  2.2670588434147778e+01  -1.4204655451207090e+12  2.2839053709993966e+01  -1.7495738298236767e+04  -7.7564368052974423e+03  -1.0563900133097664e+10  2.3741458050872332e+01  -1.7496410901441116e+09  6.4941907879242805e+13  -7.1663215767698679e+06  -3.7667197449162118e+07  2.3412223540113672e+01  1.4472298395321886e+06  3.217404