<?xml version="1.0"?>
<VTKFile type="UnstructuredGrid"  version="0.1"  >
<UnstructuredGrid>
<Piece  NumberOfPoints="2331" NumberOfCells="4248">
<Points>
<DataArray  type="Float64"  NumberOfComponents="3"  format="ascii">0 0.3 0  0 0 0  0.04999999999999999 0 0  0.0514582251803892 0.02410733605106462 0  0.0558116365147896 0.04786313285751154 0  0.06299675146291706 0.07092097740850717 0  0.07290879486935808 0.09294463440875382 0  0.08540322682126872 0.1136129493462312 0  0.1002978503657798 0.132624531648159 0  0.117375468351841 0.1497021496342203 0  0.1363870506537689 0.1645967731787313 0  0.1570553655912463 0.177091205130642 0  0.1790790225914929 0.187003248537083 0  0.2021368671424885 0.1941883634852104 0  0.2258926639489354 0.1985417748196108 0  0.25 0.2 0  0.2741073360510646 0.1985417748196108 0  0.2978631328575116 0.1941883634852104 0  0.3209209774085071 0.187003248537083 0  0.3429446344087537 0.177091205130642 0  0.3636129493462312 0.1645967731787313 0  0.3826245316481591 0.1497021496342202 0  0.3997021496342202 0.132624531648159 0  0.4145967731787313 0.1136129493462312 0  0.427091205130642 0.09294463440875371 0  0.4370032485370829 0.07092097740850713 0  0.4441883634852104 0.04786313285751155 0  0.4485417748196108 0.02410733605106461 0  0.45 0 0  0.55 0 0  0.5514582251803892 0.02410733605106462 0  0.5558116365147896 0.04786313285751154 0  0.5629967514629171 0.07092097740850717 0  0.5729087948693581 0.09294463440875382 0  0.5854032268212688 0.1136129493462312 0  0.6002978503657798 0.132624531648159 0  0.617375468351841 0.1497021496342203 0  0.6363870506537689 0.1645967731787313 0  0.6570553655912463 0.177091205130642 0  0.6790790225914929 0.187003248537083 0  0.7021368671424885 0.1941883634852104 0  0.7258926639489354 0.1985417748196108 0  0.75 0.2 0  0.7741073360510646 0.1985417748196108 0  0.7978631328575116 0.1941883634852104 0  0.8209209774085071 0.187003248537083 0  0.8429446344087537 0.177091205130642 0  0.8636129493462312 0.1645967731787313 0  0.8826245316481591 0.1497021496342202 0  0.8997021496342202 0.132624531648159 0  0.9145967731787312 0.1136129493462312 0  0.927091205130642 0.09294463440875371 0  0.9370032485370829 0.07092097740850713 0  0.9441883634852104 0.04786313285751155 0  0.9485417748196108 0.02410733605106461 0  0.95 0 0  1 0 0  1 0.3 0  0.9758926639489353 0.3014582251803892 0  0.9521368671424885 0.3058116365147896 0  0.9290790225914928 0.3129967514629171 0  0.9070553655912461 0.3229087948693581 0  0.8863870506537688 0.3354032268212687 0  0.867375468351841 0.3502978503657798 0  0.8502978503657798 0.367375468351841 0  0.8354032268212687 0.3863870506537689 0  0.822908794869358 0.4070553655912464 0  0.8129967514629171 0.4290790225914929 0  0.8058116365147896 0.4521368671424885 0  0.8014582251803892 0.4758926639489354 0  0.8 0.4999999999999999 0  0.8014582251803892 0.5241073360510646 0  0.8058116365147896 0.5478631328575115 0  0.8129967514629171 0.5709209774085071 0  0.8229087948693581 0.5929446344087538 0  0.8354032268212688 0.6136129493462312 0  0.8502978503657798 0.632624531648159 0  0.867375468351841 0.6497021496342202 0  0.8863870506537689 0.6645967731787313 0  0.9070553655912463 0.677091205130642 0  0.9290790225914929 0.6870032485370829 0  0.9521368671424885 0.6941883634852104 0  0.9758926639489354 0.6985417748196108 0  1 0.7 0  1 1 0  0.95 1 0  0.9485417748196108 0.9758926639489353 0  0.9441883634852104 0.9521368671424885 0  0.9370032485370829 0.9290790225914928 0  0.927091205130642 0.9070553655912463 0  0.9145967731787312 0.8863870506537688 0  0.8997021496342201 0.8673754683518409 0  0.882624531648159 0.8502978503657798 0  0.863612949346231 0.8354032268212686 0  0.8429446344087537 0.822908794869358 0  0.8209209774085071 0.8129967514629171 0  0.7978631328575114 0.8058116365147896 0  0.7741073360510646 0.8014582251803892 0  0.75 0.8 0  0.7258926639489353 0.8014582251803892 0  0.7021368671424885 0.8058116365147896 0  0.6790790225914928 0.8129967514629171 0  0.6570553655912461 0.8229087948693581 0  0.6363870506537688 0.8354032268212688 0  0.617375468351841 0.8502978503657798 0  0.6002978503657798 0.867375468351841 0  0.5854032268212687 0.8863870506537689 0  0.572908794869358 0.9070553655912463 0  0.5629967514629171 0.9290790225914929 0  0.5558116365147896 0.9521368671424885 0  0.5514582251803892 0.9758926639489355 0  0.55 0.9999999999999999 0  0.45 0.9999999999999999 0  0.4485417748196108 0.9758926639489353 0  0.4441883634852104 0.9521368671424885 0  0.4370032485370829 0.9290790225914928 0  0.427091205130642 0.9070553655912463 0  0.4145967731787313 0.8863870506537688 0  0.3997021496342201 0.8673754683518409 0  0.382624531648159 0.8502978503657798 0  0.363612949346231 0.8354032268212686 0  0.3429446344087536 0.822908794869358 0  0.3209209774085071 0.8129967514629171 0  0.2978631328575115 0.8058116365147896 0  0.2741073360510646 0.8014582251803892 0  0.25 0.8 0  0.2258926639489353 0.8014582251803892 0  0.2021368671424885 0.8058116365147896 0  0.1790790225914928 0.8129967514629171 0  0.1570553655912462 0.8229087948693581 0  0.1363870506537688 0.8354032268212688 0  0.117375468351841 0.8502978503657798 0  0.1002978503657797 0.867375468351841 0  0.08540322682126869 0.8863870506537689 0  0.07290879486935797 0.9070553655912463 0  0.06299675146291703 0.9290790225914929 0  0.05581163651478957 0.9521368671424885 0  0.0514582251803892 0.9758926639489355 0  0.04999999999999999 0.9999999999999999 0  0 1 0  -0 0.7000000000000001 0  0.0241073360510646 0.6985417748196108 0  0.04786313285751161 0.6941883634852104 0  0.07092097740850711 0.6870032485370829 0  0.09294463440875372 0.677091205130642 0  0.1136129493462312 0.6645967731787312 0  0.1326245316481591 0.6497021496342202 0  0.1497021496342202 0.632624531648159 0  0.1645967731787313 0.6136129493462312 0  0.177091205130642 0.5929446344087537 0  0.187003248537083 0.5709209774085071 0  0.1941883634852104 0.5478631328575115 0  0.1985417748196108 0.5241073360510646 0  0.2 0.5 0  0.1985417748196108 0.4758926639489353 0  0.1941883634852104 0.4521368671424885 0  0.1870032485370829 0.4290790225914928 0  0.177091205130642 0.4070553655912463 0  0.1645967731787313 0.3863870506537688 0  0.1497021496342202 0.3673754683518409 0  0.132624531648159 0.3502978503657798 0  0.113612949346231 0.3354032268212686 0  0.09294463440875361 0.322908794869358 0  0.07092097740850711 0.3129967514629171 0  0.04786313285751148 0.3058116365147896 0  0.02410733605106464 0.3014582251803892 0  0.6985417748196108 0.5241073360510646 0  0.7 0.5 0  0.6985417748196108 0.4758926639489353 0  0.6941883634852104 0.4521368671424885 0  0.6870032485370829 0.4290790225914928 0  0.677091205130642 0.4070553655912463 0  0.6645967731787312 0.3863870506537688 0  0.6497021496342201 0.3673754683518409 0  0.632624531648159 0.3502978503657798 0  0.613612949346231 0.3354032268212686 0  0.5929446344087537 0.322908794869358 0  0.5709209774085071 0.3129967514629171 0  0.5478631328575114 0.3058116365147896 0  0.5241073360510646 0.3014582251803892 0  0.4999999999999999 0.3 0  0.4758926639489353 0.3014582251803892 0  0.4521368671424885 0.3058116365147896 0  0.4290790225914928 0.3129967514629171 0  0.4070553655912462 0.3229087948693581 0  0.3863870506537688 0.3354032268212687 0  0.367375468351841 0.3502978503657798 0  0.3502978503657798 0.367375468351841 0  0.3354032268212687 0.3863870506537689 0  0.322908794869358 0.4070553655912464 0  0.3129967514629171 0.4290790225914929 0  0.3058116365147896 0.4521368671424885 0  0.3014582251803892 0.4758926639489354 0  0.3 0.4999999999999999 0  0.3014582251803892 0.5241073360510646 0  0.3058116365147896 0.5478631328575115 0  0.3129967514629171 0.5709209774085071 0  0.3229087948693581 0.5929446344087538 0  0.3354032268212687 0.6136129493462312 0  0.3502978503657798 0.632624531648159 0  0.367375468351841 0.6497021496342202 0  0.3863870506537689 0.6645967731787313 0  0.4070553655912463 0.677091205130642 0  0.4290790225914929 0.6870032485370829 0  0.4521368671424885 0.6941883634852104 0  0.4758926639489354 0.6985417748196108 0  0.4999999999999999 0.7 0  0.5241073360510646 0.6985417748196108 0  0.5478631328575116 0.6941883634852104 0  0.5709209774085071 0.6870032485370829 0  0.5929446344087537 0.677091205130642 0  0.6136129493462312 0.6645967731787312 0  0.6326245316481591 0.6497021496342202 0  0.6497021496342202 0.632624531648159 0  0.6645967731787312 0.6136129493462312 0  0.677091205130642 0.5929446344087537 0  0.6870032485370829 0.5709209774085071 0  0.6941883634852104 0.5478631328575115 0  0 0.15 0  1 0.15 0  1 0.85 0  0 0.8500000000000001 0  0 0.075 0  1 0.075 0  1 0.925 0  0 0.925 0  0.5 0.8127595604293815 0  0.5069440078039168 0.190422209288238 0  0.25 0.3127595604293815 0  0.756944007803917 0.3095777907117619 0  0.756944007803917 0.6904222092882382 0  0.25 0.6872404395706185 0  0 0.225 0  0.4255768646051012 0.2241073097134061 0  1 0.7749999999999999 0  0.6773391559270888 0.2766774022734219 0  1 0.225 0  0.6755768646051011 0.7241073097134062 0  0 0.7750000000000001 0  0.5818971135297744 0.2287925518358889 0  0.8318971135297746 0.728792551835889 0  0.1659156081861886 0.7301636995921477 0  0.08376842746533225 0.2299656297760495 0  0.4236002201977974 0.7746535834185855 0  0.0840843918138115 0.7698363004078523 0  0.3340843918138113 0.7301636995921477 0  0.3340843918138114 0.2698363004078523 0  0.9159156081861887 0.2301636995921477 0  0.5840843918138116 0.7698363004078522 0  0.1659156081861887 0.2698363004078523 0  0.9162315725346678 0.7700343702239506 0  0.8340843918138114 0.2698363004078523 0  0.75 0.6146645247768686 0  0.5 0.1125158665330878 0  0.75 0.3874841334669124 0  0.2504983345544904 0.6122915843562002 0  0.2504983345544902 0.3877084156437999 0  0.5 0.8879783056303169 0  0.7005361650220154 0.3333055947145943 0  0.70416808765371 0.6599554817221275 0  0.449930214263529 0.1678187287522426 0  0.2247310981387008 0.7415600637745463 0  0.5155081196221678 0.7563797802146907 0  0.2752689018612993 0.2584399362254537 0  0.05605196690611226 0.8246131191226815 0  0.9439480330938878 0.1
[...]
<PointData  Scalars="Temperature"> 
<DataArray  type="Float64"  Name="Temperature"  format="ascii">3.3812769406142557e+01  3.5850273756292033e+01  3.5842117350973496e+01  3.5803351124703156e+01  3.5693337828450787e+01  3.5518046040964741e+01  3.5277059958661020e+01  3.4968589988593948e+01  3.4596209373341736e+01  3.4156097031419748e+01  3.3638191029744576e+01  3.3048862645031932e+01  3.2403790492492440e+01  3.1715045513799328e+01  3.0994815939013723e+01  3.0265770665184107e+01  2.9538974595002877e+01  2.8822815037072541e+01  2.8141805592176027e+01  2.7491616445715660e+01  2.6898128829882094e+01  2.6369999904455799e+01  2.5909842835266037e+01  2.5540377088073555e+01  2.5254503140068223e+01  2.5056527750605810e+01  2.4924789933803737e+01  2.4856327739358552e+01  2.4834590340267273e+01  2.4475364735787686e+01  2.4447887282962011e+01  2.4363074837596024e+01  2.4210978911364148e+01  2.3994315610106071e+01  2.3707429093482190e+01  2.3367704861033161e+01  2.2999092297306230e+01  2.2614105518000816e+01  2.2234493445611076e+01  2.1877732775377172e+01  2.1555158491214161e+01  2.1273661186545361e+01  2.1034739005262953e+01  2.0835314722543561e+01  2.0671118530641820e+01  2.0539947745854576e+01  2.0435148015900911e+01  2.0354029858511488e+01  2.0293000260878166e+01  2.0247898148472856e+01  2.0215632412637113e+01  2.0192944262632757e+01  2.0177671535646905e+01  2.0167627334002415e+01  2.0161758552023024e+01  2.0159774426703802e+01  2.0157728042955625e+01  2.0223786474965767e+01  2.0233997547232345e+01  2.0263059757359002e+01  2.0308541428112733e+01  2.0366262549445743e+01  2.0431554077936198e+01  2.0497090268635372e+01  2.0557965604230841e+01  2.0606323834495782e+01  2.0639110790144194e+01  2.0650125229765084e+01  2.0643483788278921e+01  2.0620880736792071e+01  2.0587468616540797e+01  2.0548895383174841e+01  2.0505321550578930e+01  2.0457700464839412e+01  2.0407743304038171e+01  2.0354816487360502e+01  2.0301107903961665e+01  2.0250495530813556e+01  2.0203276267852239e+01  2.0162810949429812e+01  2.0129845731893848e+01  2.0105690067478687e+01  2.0090896852407461e+01  2.0085650945981076e+01  2.0031473790063874e+01  2.0031820297116575e+01  2.0032987666161322e+01  2.0036293854963290e+01  2.0041685923265948e+01  2.0049493201987492e+01  2.0060515501574933e+01  2.0075640463609126e+01  2.0095936559704136e+01  2.0122725273601063e+01  2.0157519255872440e+01  2.0201338554136154e+01  2.0253950868513186e+01  2.0316040870465621e+01  2.0385556881724693e+01  2.0463347730919896e+01  2.0545893384938420e+01  2.0631808305779849e+01  2.0714710658787769e+01  2.0791464705053460e+01  2.0853956954068614e+01  2.0899737594986469e+01  2.0921288113407360e+01  2.0923442784313064e+01  2.0907303399708333e+01  2.0881354158484001e+01  2.0859559411287623e+01  2.0850743120652034e+01  2.0916593749004626e+01  2.0941979227973832e+01  2.1010191834610616e+01  2.1118668163493407e+01  2.1268230536651938e+01  2.1462084628209194e+01  2.1696378577761177e+01  2.1971416647232555e+01  2.2277461195017036e+01  2.2612506740708714e+01  2.2957909403104988e+01  2.3298307602553976e+01  2.3617145668610856e+01  2.3892678114155188e+01  2.4113561763384890e+01  2.4264725149245049e+01  2.4345076608500896e+01  2.4352679725105727e+01  2.4288929600466332e+01  2.4168888308430027e+01  2.3998907030214696e+01  2.3791887548089562e+01  2.3568994224740308e+01  2.3352118526424171e+01  2.3163744988375925e+01  2.3034813619975335e+01  2.2982274907623811e+01  2.2982839363953570e+01  2.5058718569932552e+01  2.5065622613290969e+01  2.5089027619888444e+01  2.5126640733445655e+01  2.5179010747899319e+01  2.5248241021310953e+01  2.5341484819061506e+01  2.5470525814610681e+01  2.5643544199658884e+01  2.5865028462383481e+01  2.6151555796181494e+01  2.6497815697941100e+01  2.6902499291288834e+01  2.7349588359001903e+01  2.7831353573554605e+01  2.8341365311911623e+01  2.8882456970529145e+01  2.9461931634804305e+01  3.0084758185184768e+01  3.0734086604227812e+01  3.1391807186345101e+01  3.2025769785614948e+01  3.2610216091735602e+01  3.3111586445056417e+01  3.3488949658938473e+01  3.3729381344486782e+01  2.0621158651097314e+01  2.0659894016301468e+01  2.0713724302741394e+01  2.0785152188104448e+01  2.0878949280935593e+01  2.1002948733180371e+01  2.1165773845489529e+01  2.1374010603606468e+01  2.1637437684427425e+01  2.1952983757111827e+01  2.2326678701893822e+01  2.2760157842955824e+01  2.3246553912363108e+01  2.3781991062035374e+01  2.4355647455896083e+01  2.4957417403306820e+01  2.5566208554498022e+01  2.6169278609342911e+01  2.6730897363316480e+01  2.7239887814216253e+01  2.7651427612629373e+01  2.7954656280717476e+01  2.8120664717838952e+01  2.8154417520595665e+01  2.8041388116195812e+01  2.7810648723012992e+01  2.7475955201598779e+01  2.7069000957459114e+01  2.6619879936803187e+01  2.6147583943236292e+01  2.5669996212252734e+01  2.5179546651880180e+01  2.4695792330449148e+01  2.4218501030048806e+01  2.3753323087431735e+01  2.3312141414899962e+01  2.2893849186162399e+01  2.2514536073635377e+01  2.2171630849210299e+01  2.1872207208457411e+01  2.1611140755321241e+01  2.1388593737355166e+01  2.1199531618270218e+01  2.1043937311228859e+01  2.0913997280967074e+01  2.0807988854952164e+01  2.0724249318008891e+01  2.0661158818113535e+01  2.0617701504023291e+01  2.0593435958318203e+01  2.0586661928584618e+01  2.0596610558704860e+01  3.4980614559875931e+01  2.0192209528330761e+01  2.0055268171740789e+01  2.3959304344368952e+01  3.5598336222641031e+01  2.0168677636279302e+01  2.0038605860144962e+01  2.3302106353884106e+01  2.1344140643478823e+01  2.4365934894272307e+01  2.9651529956322531e+01  2.0891677592904696e+01  2.0414000000879273e+01  2.4615929471991162e+01  3.4253995514353846e+01  2.5962963880971490e+01  2.0073934161272682e+01  2.1573228724688690e+01  2.0211981195533070e+01  2.0628806227281206e+01  2.4661794706871753e+01  2.2984138842655650e+01  2.0233921707263786e+01  2.4777336053519718e+01  3.3685072742670734e+01  2.2095835659364390e+01  2.4674274220450496e+01  2.3354502212644810e+01  2.8050622168037556e+01  2.0293806804931243e+01  2.0980000082049223e+01  3.1860106742438013e+01  2.0108474928401222e+01  2.0540762388149087e+01  2.0487531032882401e+01  2.4592314232328746e+01  2.0808969765408325e+01  2.5489734071129714e+01  2.8854194591031007e+01  2.1095826949600994e+01  2.1195620810776443e+01  2.0560172528035135e+01  2.5384731693490089e+01  2.4345646621235222e+01  2.1403446232439510e+01  2.9454152516769277e+01  2.4217767296358002e+01  2.0229723926086344e+01  3.4533659850988499e+01  2.0072461906242943e+01  2.4722989285496844e+01  2.0451922632768127e+01  2.1116212856253796e+01  2.1630867382792264e+01  2.5114986068275435e+01  3.0682031175130511e+01  2.4162219620175708e+01  2.8452759064372689e+01  2.1025177329419698e+01  2.4637349955080140e+01  2.0713430154431276e+01  2.0559395543565230e+01  2.8101044931231073e+01  2.6461440324111088e+01  2.0881342978951306e+01  2.0946387236858250e+01  3.0702330348449465e+01  2.3912609115012810e+01  2.3528191692906908e+01  2.0372828508857342e+01  2.0625514879478668e+01  2.2160151270324704e+01  2.6801033127004807e+01  2.7379528370534690e+01  2.0744278632528427e+01  2.0873775082982814e+01  2.2123747214074577e+01  2.0328487537228384e+01  2.0767912396584908e+01  2.0631560076251507e+01  2.4653173073022352e+01  2.7302589856314100e+01  2.2653606172061764e+01  2.2808078017234312e+01  2.3799295351312264e+01  2.0161805005928827e+01  2.0160730931752209e+01  2.1683302788039612e+01  3.2972302895838915e+01  2.4880140252223619e+01  2.0348172127309894e+01  2.4567795139309098e+01  3.2699640033451608e+01  2.4957540944108327e+01  2.0238692964246841e+01  2.0420318039947539e+01  2.0092322604896804e+01  3.3809844594663005e+01  2.0198865151560238e+01  2.0053596689656334e+01  3.5111945803009490e+01  2.3808180633714581e+01  2.0687344560955736e+01  2.0313345358599378e+01  2.4003482666087763e+01  2.0518465476167218e+01  2.0880014747747754e+01  2.3537697742586747e+01  3.1696068443045377e+01  2.0297351850022917e+01  2.7698618300128711e+01  2.5135972752833943e+01  2.4349428730904329e+01  3.3965237474270886e+01  2.0105218309259573e+01  2.5479265526400653e+01  2.9750566682944754e+01  2.1115154036397737e+01  2.0242605622566646e+01  2.8902143865102246e+01  2.4826636349563902e+01  2.1509426309714929e+01  2.1644571078152758e+01  2.2108394726079709e+01  2.5579834405046583e+01  2.0720357045841258e+01  2.6424162884580610e+01  2.0592459515926681e+01  2.1331838560418383e+01  2.2053636275981020e+01  2.2975838583390594e+01  2.1189275827700502e+01  2.0249279475693115e+01  2.2676961699889635e+01  2.4427640418314116e+01  2.8393912653646197e+01  2.3376256880268834e+01  3.1666991414037483e+01  2.0488632112750786e+01  2.1084343023999512e+01  2.5079942315706134e+01  3.4219103503963581e+01  2.0576951985781854e+01  2.0234965799954253e+01  2.4565250861299660e+01  2.1202920192846072e+01  2.4318679361292581e+01  2.0203037576043283e+01  2.0692682182439089e+01  2.0070853294436489e+01  2.5147695968604189e+01  2.0927132824872483e+01  2.1010012930553259e+01  2.4722542483291630e+01  3.4616663660858677e+01  2.0487694089761632e+01  2.0557492929880837e+01  2.0446088283064555e+01  2.6054902222589309e+01  2.9032467470544642e+01  2.4957702514886090e+01  2.8373939316899889e+01  2.4992745134583949e+01  2.4875289529758895e+01  2.4368142151593069e+01  2.0697437644820230e+01  2.0850851013400447e+01  2.0975737593182533e+01  2.0955777726739843e+01  2.1127879050977302e+01  2.0064825096997897e+01  2.4937801831256024e+01  2.0046333167972705e+01  2.0218574359977893e+01  3.3950230221666217e+01  2.0160592664268162e+01  3.5784801702016310e+01  2.0180031975612042e+01  2.0179542203303011e+01  3.5318732762129180e+01  2.0033358923951756e+01  2.3072948602755858e+01  2.0081858905918732e+01  2.3611196232868451e+01  2.3476839889469559e+01  2.8264837325315966e+01  2.5812955565144748e+01  2.4709391594085613e+01  2.8760035546066224e+01  2.1358075403264277e+01  2.0121246113712608e+01  2.3844275457443587e+01  3.0567137212856398e+01  2.0364499395062637e+01  2.0418770280433719e+01  2.1703407239265228e+01  2.0079579876236469e+01  2.1170373341553670e+01  2.4061735261919921e+01  2.5082259285512034e+01  2.9545031757434533e+01  3.2657312799820772e+01  2.2548160353970598e+01  2.4060942040390781e+01  2.0890556608578517e+01  2.0781222012886872e+01  2.1299895871669730e+01  2.0614027175386333e+01  2.0654706862945911e+01  2.0043652602316335e+01  3.5433563701177910e+01  3.3376949722416605e+01  2.0303364758403717e+01  2.4189138393288186e+01  3.0445724717871013e+01  2.0423787117679950e+01  2.3487778161479888e+01  2.0534456701952447e+01  2.0283774961997416e+01  2.1223924713769147e+01  2.6651760881714264e+01  2.0743196632782055e+01  2.2373850475689490e+01  3.5690709774185031e+01  2.0168309219332841e+01  2.0036203581319782e+01  2.3185162196978961e+01  2.2445470602840729e+01  2.0569224310043879e+01  2.5335872823026911e+01  2.3992402675140170e+01  2.4142592320286219e+01  2.0229410693446127e+01  2.0204105148962494e+01  2.2940654688665386e+01  3.4451697381971400e+01  3.4127697387812518e+01  3.4757968190478124e+01  2.5928789827194635e+01  2.5648931359292423e+01  3.3385354163921619e+01  2.1573928907413450e+01  2.5137661197873491e+01  2.4399252829483618e+01  2.0372962865681320e+01  2.1401343590237165e+01  2.0917454602584787e+01  2.7093549432440021e+01  2.0835523954371713e+01  2.0061473951215422e+01  2.0604753005580307e+01  2.0489230649327926e+01  2.3089525174211577e+01  2.0886562961507124e+01  2.0542524028655510e+01  2.4754687627018747e+01  2.4544603989026822e+01  2.0646296308785885e+01  2.0729952386400765e+01  2.7616020342893400e+01  2.8036458457729903e+01  2.1338369005315389e+01  2.0191129311473379e+01  2.0955389593769837e+01  2.2061787332765210e+01  2.8725942619146238e+01  2.3114052166995663e+01  3.1162196590775270e+01  2.3794801830245341e+01  2.4106463303038975e+01  2.4632509115173271e+01  2.9220443453209715e+01  2.9908404251479915e+01  2.4377965760204415e+01  2.0998122051489155e+01  2.0950617132614781e+01  2.9018185090031668e+01  2.4950115202958763e+01  2.8201609071353239e+01  3.1008983351161362e+01  2.4012567823854546e+01  2.5415963388335179e+01  2.1165371678781284e+01  2.0612530141840185e+01  2.0580481826706109e+01  2.6891511030631698e+01  2.6946487851896649e+01  3.2379695291065943e+01  2.0542818146953568e+01  2.0491021011645582e+01  2.0439116172577599e+01  2.6199831507341418e+01  2.0665057226010479e+01  2.1395206069845646e+01  2.6213072336582901e+01  2.1566878336180977e+01  2.1824060410182099e+01  2.1053820647658824e+01  2.4669207800976103e+01  2.4546985894816270e+01  2.1249867902326994e+01  2.1782847450216721e+01  2.0087459470817141e+01  3.3350763802459610e+01  2.0606529103939117e+01  2.3577208429999668e+01  2.0177266456957202e+01  2.0136315672040745e+01  2.0740431960958695e+01  2.0578195789003409e+01  2.0475588829651993e+01  2.4435424657168173e+01  2.7062940454842934e+01  2.7482582426077130e+01  2.0776037228146478e+01  2.0850885559655858e+01  2.2567833401522908e+01  2.3086828099362734e+01  2.4365443636172063e+01  2.2566101969347915e+01  2.0357180025307020e+01  2.0524095228880320e+01  2.0264544245004029e+01  2.4430855552514689e+01  2.3507353867735379e+01  2.0031637710474868e+01  2.0158694865879369e+01  3.5846846744016680e+01  2.2982016598779630e+01  2.4852243331443482e+01  2.2517095662892032e+01  2.7511721234391171e+01  2.1845176282315709e+01  2.0671879907105815e+01  2.0419577819464543e+01  2.4439784113023773e+01  2.4837649551989042e+01  2.8516504627853035e+01  2.0711959235800016e+01  2.0202658119590140e+01  2.0177091472897505e+01  2.0138241734840015e+01  2.0205224076520775e+01  2.0978648992760199e+01  2.7858776904500779e+01  2.5817909379763520e+01  2.0897518165630203e+01  2.0858902150166827e+01  2.1017896200978331e+01  2.0844328468483312e+01  2.0519952041175245e+01  2.6536711449431774e+01  2.6239181125773523e+01  3.2181637159292812e+01  2.8179886414036574e+01  2.2420787680469374e+01  3.3198648932258919e+01  2.4913974836006826e+01  2.3023832615697987e+01  2.0765290425256484e+01  3.4090418362767856e+01  2.5551119620904544e+01  2.0361981569232732e+01  2.0386581530796491e+01  2.0083490418468003e+01  2.4562855327221008e+01  3.1356094304166525e+01  2.3626778742217471e+01  2.4608140464171672e+01  2.4771323506183830e+01  2.4695716827207377e+01  2.7548783705391269e+01  2.0673233764567609e+01  3.4801165574319377e+01  2.0125498968678233e+01  2.8502661621021566e+01  2.1959185113515371e+01  2.4493865837735679e+01  2.0212795881998250e+01  2.0431594565044911e+01  2.1472805874517501e+01  2.7896362998242388e+01  2.0900518174037245e+01  3.0372336699139240e+01  2.0669556342549530e+01  2.0080150230901545e+01  2.5084734890142155e+01  2.1879537690310212e+01  2.7934593985720984e+01  2.0330097357227405e+01  2.4618636041872580e+01  2.0162037859901165e+01  2.3046010589934074e+01  3.5801115724848472e+01  2.0032966580488178e+01  2.4094329463209245e+01  2.0804521673611433e+01  2.0150441002639106e+01  2.0492827567966007e+01  2.4964162233527610e+01  2.1720295440902284e+01  2.0284288867976183e+01  2.0961176652066900e+01  3.3597360080147077e+01  2.5255977909727019e+01  2.4853761496828778e+01  2.4461422677051452e+01  2.0648050611389806e+01  2.2746143575921437e+01  2.3187284461950370e+01  2.5026548604157977e+01  2.0244926696985310e+01  2.4715218989327713e+01  2.0668422376872076e+01  2.3945393454209569e+01  2.9868828647429773e+01  2.5437102624103762e+01  2.0297430412055785e+01  3.0122877622864674e+01  2.1506757674349512e+01  2.0271273040427779e+01  2.0385739421731127e+01  2.0375855368520579e+01  2.1049060242142943e+01  2.1042369561638889e+01  2.0093588595304812e+01  2.4278986222703033e+01  3.1239978524806279e+01  2.3492770191943567e+01  2.1230960773366302e+01  2.0583029856070123e+01  2.5353770400487523e+01  2.4505926289516012e+01  2.0070251006397445e+01  2.9295814180947019e+01  2.4454672798973366e+01  2.4531859712707476e+01  2.0905259798967400e+01  2.4777713069269371e+01  2.4023862845351665e+01  3.2050943383156643e+01  2.0268357954695521e+01  2.4194640539153191e+01  2.4834252439016840e+01  2.0257849701805565e+01  2.0215831199393126e+01  2.0221633884634365e+01  2.0087623968893030e+01  3.4498222441279822e+01  2.2403249736564913e+01  2.9553401115889944e+01  2.1011607371009966e+01  2.4248175590773105e+01  2.3363478443722197e+01  2.2197555183215794e+01  2.5219347139984123e+01  2.8521995082629690e+01  3.0157505949212094e+01  2.0403674470214561e+01  2.3637429293393758e+01  2.0200824384765987e+01  2.0226313205320039e+01  2.5211574937838172e+01  2.1940355177732847e+01  3.2899743154159850e+01  2.0332992537024129e+01  3.2321704580552947e+01  3.2804084296496804e+01  2.0103656325066201e+01  2.0087588792925381e+01  3.3823392740728863e+01  3.3927483349436109e+01  2.6998727528013095e+01  2.1866726066506821e+01  2.0816909227263558e+01  2.0731816052568796e+01  2.1933206823973922e+01  2.1551003153334747e+01  2.0943091238069176e+01  2.0063723786441408e+01  2.1019931645684434e+01  2.2359842237688550e+01  2.8516212298259987e+01  2.7756001019148435e+01  2.0659566296815864e+01  2.0675842335509767e+01  2.0932545852714711e+01  2.1811320028136603e+01  2.0500201748872126e+01  2.8237456660156177e+01  2.5112010232088966e+01  2.4364712958945415e+01  2.5661049140167638e+01  2.5393952955501327e+01  2.9325303472914108e+01  2.0050662948195335e+01  3.5154958924508406e+01  3.5000330349228364e+01  3.5008449857084443e+01  2.0060990428037996e+01  2.0049325166479974e+01  2.0225703126174128e+01  2.4248795659854906e+01  2.0305401674665312e+01  2.6080092369372501e+01  2.0437864809702351e+01  2.0213371387235480e+01  2.0195361004095879e+01  2.4023135170455117e+01  2.3783020605777459e+01  2.3914358289155150e+01  2.0906198771814530e+01  3.5272221760460482e+01  2.3654656106743111e+01  2.0184966839300092e+01  2.0119892106109567e+01  2.3799265508152082e+01  2.1260093916951018e+01  2.3285080149403612e+01  2.9091934908203203e+01  2.5162870125947066e+01  2.0221782268298412e+01  2.5025079157960537e+01  2.0598341253750363e+01  2.0339987025988197e+01  2.0360624348646901e+01  2.0261683560778305e+01  3.1010125362817792e+01  2.1249571238829400e+01  3.3811973498900251e+01  2.0288140813414017e+01  2.4297752097072138e+01  2.0324464054399222e+01  2.5737745759281204e+01  2.3813552494592603e+01  2.0054071657682499e+01  2.1453187703158658e+01  3.3637368781034802e+01  2.0419225398376678e+01  2.0158274846122325e+01  2.0758873957590577e+01  2.7869545868476763e+01  2.3675480634339650e+01  2.0608890932005259e+01  2.1511203009384960e+01  2.1105080934157737e+01  2.0926183417765635e+01  3.1231208389822655e+01  2.7263100704000845e+01  2.3144543977764112e+01  2.1067079242111880e+01  2.0480841104873377e+01  2.0813810732098510e+01  2.1107122159448835e+01  2.1140336232392968e+01  2.4343297310789538e+01  2.5227227691443961e+01  2.3447064912004198e+01  2.0226116067613614e+01  2.4987501220041519e+01  2.0322434435291260e+01  2.9324183177039686e+01  2.4794770138655078e+01  2.4884527603027653e+01  2.4789028314236976e+01  2.5297625231317305e+01  2.0596968158775297e+01  2.2260464362470938e+01  2.0555923074671689e+01  2.0559701038366089e+01  2.0490267440027846e+01  2.1380539939043800e+01  2.0097472098895864e+01  2.0258689288613056e+01  2.1696640587458560e+01  3.3827364114633085e+01  3.4279838878571731e+01  3.2206855181439359e+01  2.1463779368567039e+01  2.3812076242926427e+01  2.3497503468030633e+01  2.0639546491819004e+01  2.0836368013311411e+01  3.1520818562790659e+01  2.7512646776398082e+01  2.0107653989168924e+01  2.5139852402995778e+01  2.5767285868706573e+01  2.0471350378293213e+01  3.0906129701118381e+01  2.0772273275163013e+01  2.6099631702409273e+01  2.0682280956171823e+01  2.6345052569815874e+01  2.2044172915803887e+01  2.2195120122584456e+01  2.0946864910313639e+01  2.8449431328563481e+01  2.1108941108051081e+01  2.0589236122444291e+01  2.0976129313135932e+01  2.0889822387835729e+01  2.8082399187166793e+01  2.1170139089743440e+01  2.1547996878569624e+01  2.6811821926454016e+01  2.1717928456561424e+01  2.0597899255291519e+01  2.5722441411045015e+01  2.0047887853039470e+01  3.5220515667340010e+01  2.534