<?xml version="1.0"?>
<VTKFile type="UnstructuredGrid"  version="0.1"  >
<UnstructuredGrid>
<Piece  NumberOfPoints="2331" NumberOfCells="4248">
<Points>
<DataArray  type="Float64"  NumberOfComponents="3"  format="ascii">0 0.3 0  0 0 0  0.04999999999999999 0 0  0.0514582251803892 0.02410733605106462 0  0.0558116365147896 0.04786313285751154 0  0.06299675146291706 0.07092097740850717 0  0.07290879486935808 0.09294463440875382 0  0.08540322682126872 0.1136129493462312 0  0.1002978503657798 0.132624531648159 0  0.117375468351841 0.1497021496342203 0  0.1363870506537689 0.1645967731787313 0  0.1570553655912463 0.177091205130642 0  0.1790790225914929 0.187003248537083 0  0.2021368671424885 0.1941883634852104 0  0.2258926639489354 0.1985417748196108 0  0.25 0.2 0  0.2741073360510646 0.1985417748196108 0  0.2978631328575116 0.1941883634852104 0  0.3209209774085071 0.187003248537083 0  0.3429446344087537 0.177091205130642 0  0.3636129493462312 0.1645967731787313 0  0.3826245316481591 0.1497021496342202 0  0.3997021496342202 0.132624531648159 0  0.4145967731787313 0.1136129493462312 0  0.427091205130642 0.09294463440875371 0  0.4370032485370829 0.07092097740850713 0  0.4441883634852104 0.04786313285751155 0  0.4485417748196108 0.02410733605106461 0  0.45 0 0  0.55 0 0  0.5514582251803892 0.02410733605106462 0  0.5558116365147896 0.04786313285751154 0  0.5629967514629171 0.07092097740850717 0  0.5729087948693581 0.09294463440875382 0  0.5854032268212688 0.1136129493462312 0  0.6002978503657798 0.132624531648159 0  0.617375468351841 0.1497021496342203 0  0.6363870506537689 0.1645967731787313 0  0.6570553655912463 0.177091205130642 0  0.6790790225914929 0.187003248537083 0  0.7021368671424885 0.1941883634852104 0  0.7258926639489354 0.1985417748196108 0  0.75 0.2 0  0.7741073360510646 0.1985417748196108 0  0.7978631328575116 0.1941883634852104 0  0.8209209774085071 0.187003248537083 0  0.8429446344087537 0.177091205130642 0  0.8636129493462312 0.1645967731787313 0  0.8826245316481591 0.1497021496342202 0  0.8997021496342202 0.132624531648159 0  0.9145967731787312 0.1136129493462312 0  0.927091205130642 0.09294463440875371 0  0.9370032485370829 0.07092097740850713 0  0.9441883634852104 0.04786313285751155 0  0.9485417748196108 0.02410733605106461 0  0.95 0 0  1 0 0  1 0.3 0  0.9758926639489353 0.3014582251803892 0  0.9521368671424885 0.3058116365147896 0  0.9290790225914928 0.3129967514629171 0  0.9070553655912461 0.3229087948693581 0  0.8863870506537688 0.3354032268212687 0  0.867375468351841 0.3502978503657798 0  0.8502978503657798 0.367375468351841 0  0.8354032268212687 0.3863870506537689 0  0.822908794869358 0.4070553655912464 0  0.8129967514629171 0.4290790225914929 0  0.8058116365147896 0.4521368671424885 0  0.8014582251803892 0.4758926639489354 0  0.8 0.4999999999999999 0  0.8014582251803892 0.5241073360510646 0  0.8058116365147896 0.5478631328575115 0  0.8129967514629171 0.5709209774085071 0  0.8229087948693581 0.5929446344087538 0  0.8354032268212688 0.6136129493462312 0  0.8502978503657798 0.632624531648159 0  0.867375468351841 0.6497021496342202 0  0.8863870506537689 0.6645967731787313 0  0.9070553655912463 0.677091205130642 0  0.9290790225914929 0.6870032485370829 0  0.9521368671424885 0.6941883634852104 0  0.9758926639489354 0.6985417748196108 0  1 0.7 0  1 1 0  0.95 1 0  0.9485417748196108 0.9758926639489353 0  0.9441883634852104 0.9521368671424885 0  0.9370032485370829 0.9290790225914928 0  0.927091205130642 0.9070553655912463 0  0.9145967731787312 0.8863870506537688 0  0.8997021496342201 0.8673754683518409 0  0.882624531648159 0.8502978503657798 0  0.863612949346231 0.8354032268212686 0  0.8429446344087537 0.822908794869358 0  0.8209209774085071 0.8129967514629171 0  0.7978631328575114 0.8058116365147896 0  0.7741073360510646 0.8014582251803892 0  0.75 0.8 0  0.7258926639489353 0.8014582251803892 0  0.7021368671424885 0.8058116365147896 0  0.6790790225914928 0.8129967514629171 0  0.6570553655912461 0.8229087948693581 0  0.6363870506537688 0.8354032268212688 0  0.617375468351841 0.8502978503657798 0  0.6002978503657798 0.867375468351841 0  0.5854032268212687 0.8863870506537689 0  0.572908794869358 0.9070553655912463 0  0.5629967514629171 0.9290790225914929 0  0.5558116365147896 0.9521368671424885 0  0.5514582251803892 0.9758926639489355 0  0.55 0.9999999999999999 0  0.45 0.9999999999999999 0  0.4485417748196108 0.9758926639489353 0  0.4441883634852104 0.9521368671424885 0  0.4370032485370829 0.9290790225914928 0  0.427091205130642 0.9070553655912463 0  0.4145967731787313 0.8863870506537688 0  0.3997021496342201 0.8673754683518409 0  0.382624531648159 0.8502978503657798 0  0.363612949346231 0.8354032268212686 0  0.3429446344087536 0.822908794869358 0  0.3209209774085071 0.8129967514629171 0  0.2978631328575115 0.8058116365147896 0  0.2741073360510646 0.8014582251803892 0  0.25 0.8 0  0.2258926639489353 0.8014582251803892 0  0.2021368671424885 0.8058116365147896 0  0.1790790225914928 0.8129967514629171 0  0.1570553655912462 0.8229087948693581 0  0.1363870506537688 0.8354032268212688 0  0.117375468351841 0.8502978503657798 0  0.1002978503657797 0.867375468351841 0  0.08540322682126869 0.8863870506537689 0  0.07290879486935797 0.9070553655912463 0  0.06299675146291703 0.9290790225914929 0  0.05581163651478957 0.9521368671424885 0  0.0514582251803892 0.9758926639489355 0  0.04999999999999999 0.9999999999999999 0  0 1 0  -0 0.7000000000000001 0  0.0241073360510646 0.6985417748196108 0  0.04786313285751161 0.6941883634852104 0  0.07092097740850711 0.6870032485370829 0  0.09294463440875372 0.677091205130642 0  0.1136129493462312 0.6645967731787312 0  0.1326245316481591 0.6497021496342202 0  0.1497021496342202 0.632624531648159 0  0.1645967731787313 0.6136129493462312 0  0.177091205130642 0.5929446344087537 0  0.187003248537083 0.5709209774085071 0  0.1941883634852104 0.5478631328575115 0  0.1985417748196108 0.5241073360510646 0  0.2 0.5 0  0.1985417748196108 0.4758926639489353 0  0.1941883634852104 0.4521368671424885 0  0.1870032485370829 0.4290790225914928 0  0.177091205130642 0.4070553655912463 0  0.1645967731787313 0.3863870506537688 0  0.1497021496342202 0.3673754683518409 0  0.132624531648159 0.3502978503657798 0  0.113612949346231 0.3354032268212686 0  0.09294463440875361 0.322908794869358 0  0.07092097740850711 0.3129967514629171 0  0.04786313285751148 0.3058116365147896 0  0.02410733605106464 0.3014582251803892 0  0.6985417748196108 0.5241073360510646 0  0.7 0.5 0  0.6985417748196108 0.4758926639489353 0  0.6941883634852104 0.4521368671424885 0  0.6870032485370829 0.4290790225914928 0  0.677091205130642 0.4070553655912463 0  0.6645967731787312 0.3863870506537688 0  0.6497021496342201 0.3673754683518409 0  0.632624531648159 0.3502978503657798 0  0.613612949346231 0.3354032268212686 0  0.5929446344087537 0.322908794869358 0  0.5709209774085071 0.3129967514629171 0  0.5478631328575114 0.3058116365147896 0  0.5241073360510646 0.3014582251803892 0  0.4999999999999999 0.3 0  0.4758926639489353 0.3014582251803892 0  0.4521368671424885 0.3058116365147896 0  0.4290790225914928 0.3129967514629171 0  0.4070553655912462 0.3229087948693581 0  0.3863870506537688 0.3354032268212687 0  0.367375468351841 0.3502978503657798 0  0.3502978503657798 0.367375468351841 0  0.3354032268212687 0.3863870506537689 0  0.322908794869358 0.4070553655912464 0  0.3129967514629171 0.4290790225914929 0  0.3058116365147896 0.4521368671424885 0  0.3014582251803892 0.4758926639489354 0  0.3 0.4999999999999999 0  0.3014582251803892 0.5241073360510646 0  0.3058116365147896 0.5478631328575115 0  0.3129967514629171 0.5709209774085071 0  0.3229087948693581 0.5929446344087538 0  0.3354032268212687 0.6136129493462312 0  0.3502978503657798 0.632624531648159 0  0.367375468351841 0.6497021496342202 0  0.3863870506537689 0.6645967731787313 0  0.4070553655912463 0.677091205130642 0  0.4290790225914929 0.6870032485370829 0  0.4521368671424885 0.6941883634852104 0  0.4758926639489354 0.6985417748196108 0  0.4999999999999999 0.7 0  0.5241073360510646 0.6985417748196108 0  0.5478631328575116 0.6941883634852104 0  0.5709209774085071 0.6870032485370829 0  0.5929446344087537 0.677091205130642 0  0.6136129493462312 0.6645967731787312 0  0.6326245316481591 0.6497021496342202 0  0.6497021496342202 0.632624531648159 0  0.6645967731787312 0.6136129493462312 0  0.677091205130642 0.5929446344087537 0  0.6870032485370829 0.5709209774085071 0  0.6941883634852104 0.5478631328575115 0  0 0.15 0  1 0.15 0  1 0.85 0  0 0.8500000000000001 0  0 0.075 0  1 0.075 0  1 0.925 0  0 0.925 0  0.5 0.8127595604293815 0  0.5069440078039168 0.190422209288238 0  0.25 0.3127595604293815 0  0.756944007803917 0.3095777907117619 0  0.756944007803917 0.6904222092882382 0  0.25 0.6872404395706185 0  0 0.225 0  0.4255768646051012 0.2241073097134061 0  1 0.7749999999999999 0  0.6773391559270888 0.2766774022734219 0  1 0.225 0  0.6755768646051011 0.7241073097134062 0  0 0.7750000000000001 0  0.5818971135297744 0.2287925518358889 0  0.8318971135297746 0.728792551835889 0  0.1659156081861886 0.7301636995921477 0  0.08376842746533225 0.2299656297760495 0  0.4236002201977974 0.7746535834185855 0  0.0840843918138115 0.7698363004078523 0  0.3340843918138113 0.7301636995921477 0  0.3340843918138114 0.2698363004078523 0  0.9159156081861887 0.2301636995921477 0  0.5840843918138116 0.7698363004078522 0  0.1659156081861887 0.2698363004078523 0  0.9162315725346678 0.7700343702239506 0  0.8340843918138114 0.2698363004078523 0  0.75 0.6146645247768686 0  0.5 0.1125158665330878 0  0.75 0.3874841334669124 0  0.2504983345544904 0.6122915843562002 0  0.2504983345544902 0.3877084156437999 0  0.5 0.8879783056303169 0  0.7005361650220154 0.3333055947145943 0  0.70416808765371 0.6599554817221275 0  0.449930214263529 0.1678187287522426 0  0.2247310981387008 0.7415600637745463 0  0.5155081196221678 0.7563797802146907 0  0.2752689018612993 0.2584399362254537 0  0.05605196690611226 0.8246131191226815 0  0.9439480330938878 0.1
[...]
<PointData  Scalars="Temperature"> 
<DataArray  type="Float64"  Name="Temperature"  format="ascii">2.1635383934726271e+01  2.1910273974015158e+01  2.1904864991026781e+01  2.1901120006010458e+01  2.1890031286763172e+01  2.1871530038289517e+01  2.1845365421244910e+01  2.1810421383178230e+01  2.1767419231824039e+01  2.1716229121845018e+01  2.1656399617641899e+01  2.1588847381919727e+01  2.1515176533320627e+01  2.1436661227221709e+01  2.1354161828520567e+01  2.1270312765460098e+01  2.1186598160066769e+01  2.1104077571610468e+01  2.1026314278670984e+01  2.0952811662622636e+01  2.0886505288036449e+01  2.0828128936555391e+01  2.0775235988968330e+01  2.0731507045016418e+01  2.0695031982240874e+01  2.0668596863667279e+01  2.0647754172190282e+01  2.0636013829456680e+01  2.0631633330667416e+01  2.0475587054932259e+01  2.0471259724327737e+01  2.0457818727365765e+01  2.0435549055223934e+01  2.0407569227265970e+01  2.0373533597244805e+01  2.0335825346653099e+01  2.0297980281221136e+01  2.0259463625954929e+01  2.0222462369823848e+01  2.0188154902854109e+01  2.0157168061032351e+01  2.0129995622352727e+01  2.0106840352938061e+01  2.0087412300211113e+01  2.0071293395572454e+01  2.0058350003692379e+01  2.0047904359894876e+01  2.0039747794242071e+01  2.0033295770823855e+01  2.0028351139495570e+01  2.0024607380893848e+01  2.0021868792350546e+01  2.0019979582197053e+01  2.0018699504075691e+01  2.0017983482180604e+01  2.0017760138252552e+01  2.0015956621970574e+01  2.0014398385116309e+01  2.0015827243964729e+01  2.0019303951335747e+01  2.0023989164194205e+01  2.0029391388855252e+01  2.0035276819190010e+01  2.0041096019519848e+01  2.0046855276211467e+01  2.0051834971578202e+01  2.0056075040080138e+01  2.0058569224656956e+01  2.0059756384519037e+01  2.0059052681482164e+01  2.0056597313198573e+01  2.0053301269190317e+01  2.0048517022415709e+01  2.0043018774742606e+01  2.0037387760617424e+01  2.0031742489083882e+01  2.0026286839605397e+01  2.0021493779542748e+01  2.0017150322272517e+01  2.0013536886086396e+01  2.0010541994228390e+01  2.0008193926831670e+01  2.0006564389472004e+01  2.0005885951385316e+01  2.0002386619646725e+01  2.0002645514109091e+01  2.0002794978528136e+01  2.0003174583295582e+01  2.0003748098406923e+01  2.0004516163102416e+01  2.0005583297308675e+01  2.0007022063239727e+01  2.0008881958613237e+01  2.0011278303481099e+01  2.0014356532229627e+01  2.0018240895050642e+01  2.0022971061777753e+01  2.0028637517687212e+01  2.0035087912228470e+01  2.0042404169232778e+01  2.0050073292563670e+01  2.0058201226394242e+01  2.0065628463739742e+01  2.0072442755894091e+01  2.0077885831925084e+01  2.0081814607066530e+01  2.0083315326126193e+01  2.0083165645271219e+01  2.0080918137089157e+01  2.0076998127077466e+01  2.0073196535509396e+01  2.0071352150047936e+01  2.0094010146522109e+01  2.0098903550117928e+01  2.0109906089809364e+01  2.0125020291628875e+01  2.0143272969821240e+01  2.0165185645774926e+01  2.0190398368258808e+01  2.0219067349933390e+01  2.0250407874186315e+01  2.0284410416739107e+01  2.0319427122873879e+01  2.0354574053753410e+01  2.0387826818134503e+01  2.0417680843644426e+01  2.0442512994580497e+01  2.0460310113048937e+01  2.0470094531025289e+01  2.0471963854986932e+01  2.0465003034501120e+01  2.0451697674227933e+01  2.0431841884113570e+01  2.0406972664440620e+01  2.0378755414605230e+01  2.0348975925598943e+01  2.0319490290734404e+01  2.0295207009196577e+01  2.0283449111820168e+01  2.0284810837557888e+01  2.0675445038194916e+01  2.0675750972500381e+01  2.0678135905048265e+01  2.0682344141367153e+01  2.0688513552170708e+01  2.0696913321066578e+01  2.0707952492515869e+01  2.0723279582751800e+01  2.0742154117877202e+01  2.0763818723603233e+01  2.0792073223578996e+01  2.0825180577693615e+01  2.0865010768002573e+01  2.0910621384255816e+01  2.0962481800305110e+01  2.1020749249845149e+01  2.1084769042279881e+01  2.1153740345658271e+01  2.1226543671797803e+01  2.1301059324443692e+01  2.1374520748877345e+01  2.1444123891237172e+01  2.1507510734510831e+01  2.1561055468697411e+01  2.1601322438354767e+01  2.1626858935254681e+01  2.0083232348936747e+01  2.0086889071465869e+01  2.0092750998650452e+01  2.0100832465234244e+01  2.0111690579945119e+01  2.0125648614481449e+01  2.0143239867365352e+01  2.0165227691518353e+01  2.0192264102406767e+01  2.0224204310567092e+01  2.0262309367732289e+01  2.0306706242456475e+01  2.0357083292043715e+01  2.0413335349050918e+01  2.0474256281488227e+01  2.0538280011895342e+01  2.0603026135551204e+01  2.0667229408732876e+01  2.0725298393926234e+01  2.0778580957268233e+01  2.0821730480134850e+01  2.0854504210444627e+01  2.0873124453768799e+01  2.0881527123069365e+01  2.0874330386975071e+01  2.0857155183996280e+01  2.0827753752522803e+01  2.0789765116886510e+01  2.0744974326264078e+01  2.0694196122920129e+01  2.0641510545109885e+01  2.0585981006465129e+01  2.0531213883654498e+01  2.0477495837947249e+01  2.0426074190246823e+01  2.0377996340056452e+01  2.0333129798441529e+01  2.0292721239522521e+01  2.0256200080909057e+01  2.0224052006826138e+01  2.0195923321062828e+01  2.0171608116619449e+01  2.0150812258938782e+01  2.0133601391824019e+01  2.0119336608956839e+01  2.0107674635877448e+01  2.0098367822628468e+01  2.0091260298690869e+01  2.0086084304889258e+01  2.0082886413017437e+01  2.0081188991445849e+01  2.0081415693678228e+01  2.1824239068107055e+01  2.0015718799687352e+01  2.0003891849724710e+01  2.0452199374679775e+01  2.1888033446762343e+01  2.0016029603368931e+01  2.0002948676973467e+01  2.0347723500542443e+01  2.0148221400713076e+01  2.0496801313616867e+01  2.1151928811296738e+01  2.0092158840645563e+01  2.0043152453921763e+01  2.0546106060364721e+01  2.1725189464732502e+01  2.0703507145335589e+01  2.0004981215602509e+01  2.0168675815137743e+01  2.0014905619694488e+01  2.0069864327282488e+01  2.0575937287622462e+01  2.0321175647943758e+01  2.0021475163267144e+01  2.0575235707526254e+01  2.1658572520382439e+01  2.0237179438312591e+01  2.0565370629724725e+01  2.0379405327654283e+01  2.0949258220505182e+01  2.0026892729732584e+01  2.0107951544905639e+01  2.1439676848104146e+01  2.0009148655328339e+01  2.0052541734581489e+01  2.0055249604837883e+01  2.0538791506715654e+01  2.0087010331941048e+01  2.0662052172774175e+01  2.1036614302529212e+01  2.0114920500369326e+01  2.0133883661999654e+01  2.0068144278045924e+01  2.0659710765764046e+01  2.0497552571233751e+01  2.0162938855801738e+01  2.1146493902752340e+01  2.0485236715842177e+01  2.0021683246644915e+01  2.1767497143578012e+01  2.0005623018112310e+01  2.0530119708111123e+01  2.0045042032248070e+01  2.0115592908576929e+01  2.0182242507082275e+01  2.0638931307393992e+01  2.1290896380412800e+01  2.0478956478977022e+01  2.0966755868013831e+01  2.0105232837249247e+01  2.0548386947820848e+01  2.0079059786917007e+01  2.0064567191569754e+01  2.0945968790980409e+01  2.0772807679186091e+01  2.0082134666919799e+01  2.0094115434907039e+01  2.1300872593405810e+01  2.0443658478838074e+01  2.0376233480198977e+01  2.0036667753513047e+01  2.0058878666317458e+01  2.0225778524172863e+01  2.0777183375682672e+01  2.0899323207299894e+01  2.0077212194052922e+01  2.0103895221574685e+01  2.0233319097288618e+01  2.0031600242212036e+01  2.0078668594248750e+01  2.0071763909448368e+01  2.0551663140739901e+01  2.0860522034837533e+01  2.0295901824532194e+01  2.0320127393511925e+01  2.0420098200169853e+01  2.0014525326575765e+01  2.0013901666423326e+01  2.0191842291523429e+01  2.1561781716703599e+01  2.0621599799881359e+01  2.0030146998925421e+01  2.0528584106934048e+01  2.1545875470656526e+01  2.0624217863982267e+01  2.0017914814101449e+01  2.0042642670629323e+01  2.0006993840704730e+01  2.1658018877941579e+01  2.0019532663790162e+01  2.0004380441879725e+01  2.1834590540114860e+01  2.0421768073853361e+01  2.0065593469438614e+01  2.0030114192659049e+01  2.0431641383508019e+01  2.0057061492798535e+01  2.0087112641861065e+01  2.0403205670841569e+01  2.1412713285673291e+01  2.0030923008021361e+01  2.0861191539747249e+01  2.0656649925847361e+01  2.0493178493101965e+01  2.1696691609040986e+01  2.0009363257230945e+01  2.0691237637183846e+01  2.1174537641688470e+01  2.0116437466661889e+01  2.0021646394927082e+01  2.1033100289058311e+01  2.0568100993489434e+01  2.0155739742012365e+01  2.0185426790282587e+01  2.0234886352897171e+01  2.0624993884124180e+01  2.0090134779222897e+01  2.0801511966237747e+01  2.0058757043076621e+01  2.0147818582022758e+01  2.0238211328284411e+01  2.0326487389352948e+01  2.0126633325761013e+01  2.0022915072300677e+01  2.0275826885492268e+01  2.0500096402341669e+01  2.1030522887565105e+01  2.0372816624102782e+01  2.1424543502589003e+01  2.0043341530308673e+01  2.0130470819364987e+01  2.0592547835768439e+01  2.1724922838669666e+01  2.0059592194534854e+01  2.0019594322029867e+01  2.0551873970473856e+01  2.0132677771519031e+01  2.0511957577334027e+01  2.0015347603151334e+01  2.0068779400562448e+01  2.0006139335555094e+01  2.0648390446544326e+01  2.0099682847576620e+01  2.0118253782183452e+01  2.0556933422251088e+01  2.1778951898762664e+01  2.0051164622124432e+01  2.0071995110768174e+01  2.0048419828180087e+01  2.0752564724732103e+01  2.1086741533637035e+01  2.0570611362134454e+01  2.0932197268493532e+01  2.0643514533257321e+01  2.0611375783825800e+01  2.0481509267731383e+01  2.0069143406296259e+01  2.0101009537887972e+01  2.0093857241348683e+01  2.0091932582881352e+01  2.0123152498562060e+01  2.0004433144611610e+01  2.0639373406174730e+01  2.0003419188315817e+01  2.0014381950452719e+01  2.1668615116366510e+01  2.0015970573912490e+01  2.1904691642959698e+01  2.0015942670783662e+01  2.0018135722328353e+01  2.1860877740868702e+01  2.0002566785230972e+01  2.0305521146382532e+01  2.0005556096674741e+01  2.0397470510751365e+01  2.0372424485195374e+01  2.0932703756971065e+01  2.0679050337308674e+01  2.0562866500497666e+01  2.1035756366002115e+01  2.0149334455305617e+01  2.0009941988600609e+01  2.0422723658917356e+01  2.1296238428438791e+01  2.0034234471295530e+01  2.0041208747876492e+01  2.0201109756841905e+01  2.0005878377273607e+01  2.0134258683078141e+01  2.0446971130048620e+01  2.0616498199053471e+01  2.1136262730982306e+01  2.1534485358219495e+01  2.0275833800463580e+01  2.0451149404536533e+01  2.0091389339667646e+01  2.0079000258930137e+01  2.0156744834515898e+01  2.0072955586123690e+01  2.0085331359713255e+01  2.0003539301769056e+01  2.1869180269512221e+01  2.1625368255085917e+01  2.0027622587266173e+01  2.0484637153874242e+01  2.1261008651129590e+01  2.0040033432748437e+01  2.0379570648430480e+01  2.0065489930324965e+01  2.0023565109785707e+01  2.0144536583389883e+01  2.0802060746339944e+01  2.0086512774667657e+01  2.0271426783895443e+01  2.1893995510431832e+01  2.0017431715412489e+01  2.0002949498920341e+01  2.0325581094259377e+01  2.0269592304943611e+01  2.0073054425903933e+01  2.0612488766952044e+01  2.0440827578442182e+01  2.0480074811874029e+01  2.0024437971104803e+01  2.0017093157245483e+01  2.0322711058313885e+01  2.1753962264976209e+01  2.1716412167863641e+01  2.1796800359676485e+01  2.0754597421936083e+01  2.0680055739357680e+01  2.1601030719154810e+01  2.0176147772367027e+01  2.0668673530092725e+01  2.0489649982816200e+01  2.0039947825367992e+01  2.0154156177564474e+01  2.0094917500415697e+01  2.0891130795892789e+01  2.0106124990599170e+01  2.0004769147529434e+01  2.0080186676221437e+01  2.0054725384736642e+01  2.0315940112146166e+01  2.0080300080254567e+01  2.0047269536354630e+01  2.0591980916432536e+01  2.0510599922471162e+01  2.0066670907357764e+01  2.0089749985111474e+01  2.0867026597645808e+01  2.0970017541465179e+01  2.0140477346770272e+01  2.0016422466103030e+01  2.0099261512499766e+01  2.0209021399759081e+01  2.1051796526593662e+01  2.0355916971594780e+01  2.1352281473667425e+01  2.0433735355675879e+01  2.0451441971137978e+01  2.0547090801110588e+01  2.1136481907043279e+01  2.1195512053904171e+01  2.0509196161411417e+01  2.0105211274151468e+01  2.0090853651190454e+01  2.1057316444829102e+01  2.0610434616420214e+01  2.0904828520431245e+01  2.1331565837167645e+01  2.0456978894869380e+01  2.0699341123083897e+01  2.0124738456159143e+01  2.0076152096601774e+01  2.0060211097912688e+01  2.0790086194500113e+01  2.0847245434409601e+01  2.1488380285915781e+01  2.0056141113335865e+01  2.0046876131016241e+01  2.0045456835523495e+01  2.0686686283704777e+01  2.0064040612832816e+01  2.0157242098506448e+01  2.0713832407310065e+01  2.0175684507119314e+01  2.0205056979365999e+01  2.0113291727219980e+01  2.0513021061051237e+01  2.0516542109236703e+01  2.0128339750211634e+01  2.0187033223618414e+01  2.0007091604669959e+01  2.1623579981012114e+01  2.0053797345266954e+01  2.0369253112316851e+01  2.0016073497596413e+01  2.0012310103322498e+01  2.0073680357129390e+01  2.0054842682213643e+01  2.0050662503484965e+01  2.0494622561839520e+01  2.0780709869532433e+01  2.0857473761559234e+01  2.0074513862440117e+01  2.0088581753677246e+01  2.0296237916522362e+01  2.0326213018425072e+01  2.0496557968207885e+01  2.0271425057530543e+01  2.0033956877681344e+01  2.0061740799694729e+01  2.0024912101649857e+01  2.0519452475756925e+01  2.0385175356789244e+01  2.0002506531612728e+01  2.0016805787135393e+01  2.1908020889219525e+01  2.0284058045525981e+01  2.0569794821720333e+01  2.0279084159501778e+01  2.0889371769508053e+01  2.0205995254218177e+01  2.0071476011940767e+01  2.0037191169637680e+01  2.0486023990250011e+01  2.0614216753297473e+01  2.0996217868582157e+01  2.0074278452397511e+01  2.0018032280202160e+01  2.0015792801268940e+01  2.0012013029821546e+01  2.0018668529774221e+01  2.0122138364867460e+01  2.0979517050176778e+01  2.0741168835841510e+01  2.0085429120231694e+01  2.0074565023066089e+01  2.0104706813814833e+01  2.0093484192279011e+01  2.0053422139777240e+01  2.0812160377510054e+01  2.0719486750893452e+01  2.1473420370433182e+01  2.0944995510072697e+01  2.0273037213437924e+01  2.1597952234782380e+01  2.0595726296693968e+01  2.0338075763858171e+01  2.0083813081216014e+01  2.1700370773031075e+01  2.0714876776843834e+01  2.0033651596325807e+01  2.0039426678264707e+01  2.0007101982254465e+01  2.0526719797604606e+01  2.1381294259318764e+01  2.0409662745548030e+01  2.0537100221114592e+01  2.0576307894023582e+01  2.0563120935998796e+01  2.0917711802979017e+01  2.0084249776949370e+01  2.1797455423651911e+01  2.0011047909552961e+01  2.1019340433556629e+01  2.0221232933216800e+01  2.0542394359920308e+01  2.0016853882545476e+01  2.0045247635031529e+01  2.0171867214948236e+01  2.0866004062957174e+01  2.0085475728155554e+01  2.1254589012268010e+01  2.0066497405971532e+01  2.0005588165798802e+01  2.0663008799243066e+01  2.0202597966659727e+01  2.0889498936182143e+01  2.0032861134215750e+01  2.0544323449291866e+01  2.0017074408226371e+01  2.0298754094821895e+01  2.1903880173488098e+01  2.0002659215620749e+01  2.0463429469407227e+01  2.0083463468066086e+01  2.0012599868839210e+01  2.0049126467252481e+01  2.0619773884541473e+01  2.0174672298021068e+01  2.0022177916005173e+01  2.0111039378837081e+01  2.1638641544723548e+01  2.0675902835472648e+01  2.0604059776651564e+01  2.0507704178169490e+01  2.0065004964125578e+01  2.0310032703983975e+01  2.0362330924840421e+01  2.0660746440772588e+01  2.0017656909748744e+01  2.0585531609675346e+01  2.0062069358743170e+01  2.0438910977206188e+01  2.1211376630223921e+01  2.0622388877880709e+01  2.0027311039441706e+01  2.1217154205140837e+01  2.0181370164775721e+01  2.0025407853613078e+01  2.0037737502018480e+01  2.0037617240790937e+01  2.0109373237606139e+01  2.0113020381532351e+01  2.0007418807512639e+01  2.0473486565999341e+01  2.1378627703639584e+01  2.0379058882699198e+01  2.0133573958579735e+01  2.0078368250161329e+01  2.0627163475999161e+01  2.0520956008368451e+01  2.0004982709886853e+01  2.1107559695785600e+01  2.0519181886138597e+01  2.0500771690371177e+01  2.0090011156938260e+01  2.0604801703744087e+01  2.0421558942266294e+01  2.1473332920426579e+01  2.0029342251008746e+01  2.0471234355691291e+01  2.0605556710347958e+01  2.0021534940653670e+01  2.0014691063948234e+01  2.0016386389677240e+01  2.0007919681053398e+01  2.1763168684419231e+01  2.0241948065383269e+01  2.1158308078770322e+01  2.0100635383499867e+01  2.0474224308818773e+01  2.0367402776596002e+01  2.0235931468639397e+01  2.0572055716832335e+01  2.0969501495998085e+01  2.1237105290719672e+01  2.0033603435409606e+01  2.0392071024666105e+01  2.0021865691749031e+01  2.0020552850971846e+01  2.0648579115419487e+01  2.0229227620618381e+01  2.1543405833503265e+01  2.0027016100718821e+01  2.1497980012015894e+01  2.1560260906567539e+01  2.0008069351095521e+01  2.0006242412324749e+01  2.1647392893580257e+01  2.1683444394377354e+01  2.0829948254973164e+01  2.0208783775537231e+01  2.0101671328147308e+01  2.0073207141714597e+01  2.0220966214156398e+01  2.0178397790733523e+01  2.0097173463479685e+01  2.0004581590616837e+01  2.0101930481071285e+01  2.0263189589420534e+01  2.0963931723739087e+01  2.0913509722258446e+01  2.0062227138590963e+01  2.0077342678503822e+01  2.0085843130523305e+01  2.0209811680658891e+01  2.0057813723030417e+01  2.0907730506752923e+01  2.0660327448091895e+01  2.0515893956033096e+01  2.0733017307117677e+01  2.0662566337989617e+01  2.1109661936910395e+01  2.0003646672226235e+01  2.1843709620434126e+01  2.1825251987290997e+01  2.1818131733472327e+01  2.0005411171101841e+01  2.0004295160661535e+01  2.0019441331117299e+01  2.0465436883104420e+01  2.0029283264641681e+01  2.0731235563430300e+01  2.0041848827249655e+01  2.0020535575599901e+01  2.0017095773155216e+01  2.0455817357071403e+01  2.0424197610682249e+01  2.0443130535741620e+01  2.0082563264583008e+01  2.1848571270445671e+01  2.0402130426558013e+01  2.0017244365139256e+01  2.0010052646546047e+01  2.0407866911880909e+01  2.0140950267065811e+01  2.0360923671441341e+01  2.1067104090816137e+01  2.0618456472841636e+01  2.0014330436768290e+01  2.0664239894614870e+01  2.0078420013670833e+01  2.0032983860243167e+01  2.0036050632889690e+01  2.0024213446904994e+01  2.1345082629104486e+01  2.0135185440424930e+01  2.1677374526007643e+01  2.0026726143170539e+01  2.0473204520148492e+01  2.0035728464360513e+01  2.0710518220957624e+01  2.0419054764261780e+01  2.0004025769895442e+01  2.0161508886424176e+01  2.1625475842658439e+01  2.0039030508456463e+01  2.0015872451883681e+01  2.0083877219260366e+01  2.0954261614579494e+01  2.0407946900551995e+01  2.0061276731450999e+01  2.0169954519497836e+01  2.0121720409191493e+01  2.0114849384886885e+01  2.1358823749808330e+01  2.0828326748309248e+01  2.0340935751277740e+01  2.0130333130419459e+01  2.0040556090563680e+01  2.0082622397713649e+01  2.0126973890238933e+01  2.0120350179569868e+01  2.0476170269212666e+01  2.0685723177130640e+01  2.0392797322274347e+01  2.0015470721328171e+01  2.0652173558453075e+01  2.0028708529173812e+01  2.1101784103769450e+01  2.0569964513532064e+01  2.0602329979181157e+01  2.0574735956770873e+01  2.0660927216324520e+01  2.0063345067202413e+01  2.0263755268620113e+01  2.0064793136366148e+01  2.0061090539972955e+01  2.0051310340698144e+01  2.0156703587204525e+01  2.0008348095786339e+01  2.0025906057544681e+01  2.0186081010737038e+01  2.1679515992183894e+01  2.1735470196664039e+01  2.1488512394553084e+01  2.0149108592865577e+01  2.0435723636576316e+01  2.0398231639617766e+01  2.0057503055563995e+01  2.0078105957383833e+01  2.1390004402577421e+01  2.0816193540492055e+01  2.0009839896904975e+01  2.0576818874339441e+01  2.0662527305223762e+01  2.0044007856382702e+01  2.1322553093569809e+01  2.0101024401566335e+01  2.0740659628235658e+01  2.0080374586636147e+01  2.0812571016566782e+01  2.0229392792080738e+01  2.0242700934026630e+01  2.0094947116604725e+01  2.1054957867244294e+01  2.0138765960481795e+01  2.0055435834462894e+01  2.0109227825698319e+01  2.0101804273152474e+01  2.0911962684294103e+01  2.0126828782159521e+01  2.0162539736156489e+01  2.0806043264571795e+01  2.0198093654727582e+01  2.0067999979450654e+01  2.0628267184301563e+01  2.0003695922293648e+01  2.1849598599926054e+01  2.069