<?xml version="1.0"?>
<VTKFile type="UnstructuredGrid"  version="0.1"  >
<UnstructuredGrid>
<Piece  NumberOfPoints="2331" NumberOfCells="4248">
<Points>
<DataArray  type="Float64"  NumberOfComponents="3"  format="ascii">0 0.3 0  0 0 0  0.04999999999999999 0 0  0.0514582251803892 0.02410733605106462 0  0.0558116365147896 0.04786313285751154 0  0.06299675146291706 0.07092097740850717 0  0.07290879486935808 0.09294463440875382 0  0.08540322682126872 0.1136129493462312 0  0.1002978503657798 0.132624531648159 0  0.117375468351841 0.1497021496342203 0  0.1363870506537689 0.1645967731787313 0  0.1570553655912463 0.177091205130642 0  0.1790790225914929 0.187003248537083 0  0.2021368671424885 0.1941883634852104 0  0.2258926639489354 0.1985417748196108 0  0.25 0.2 0  0.2741073360510646 0.1985417748196108 0  0.2978631328575116 0.1941883634852104 0  0.3209209774085071 0.187003248537083 0  0.3429446344087537 0.177091205130642 0  0.3636129493462312 0.1645967731787313 0  0.3826245316481591 0.1497021496342202 0  0.3997021496342202 0.132624531648159 0  0.4145967731787313 0.1136129493462312 0  0.427091205130642 0.09294463440875371 0  0.4370032485370829 0.07092097740850713 0  0.4441883634852104 0.04786313285751155 0  0.4485417748196108 0.02410733605106461 0  0.45 0 0  0.55 0 0  0.5514582251803892 0.02410733605106462 0  0.5558116365147896 0.04786313285751154 0  0.5629967514629171 0.07092097740850717 0  0.5729087948693581 0.09294463440875382 0  0.5854032268212688 0.1136129493462312 0  0.6002978503657798 0.132624531648159 0  0.617375468351841 0.1497021496342203 0  0.6363870506537689 0.1645967731787313 0  0.6570553655912463 0.177091205130642 0  0.6790790225914929 0.187003248537083 0  0.7021368671424885 0.1941883634852104 0  0.7258926639489354 0.1985417748196108 0  0.75 0.2 0  0.7741073360510646 0.1985417748196108 0  0.7978631328575116 0.1941883634852104 0  0.8209209774085071 0.187003248537083 0  0.8429446344087537 0.177091205130642 0  0.8636129493462312 0.1645967731787313 0  0.8826245316481591 0.1497021496342202 0  0.8997021496342202 0.132624531648159 0  0.9145967731787312 0.1136129493462312 0  0.927091205130642 0.09294463440875371 0  0.9370032485370829 0.07092097740850713 0  0.9441883634852104 0.04786313285751155 0  0.9485417748196108 0.02410733605106461 0  0.95 0 0  1 0 0  1 0.3 0  0.9758926639489353 0.3014582251803892 0  0.9521368671424885 0.3058116365147896 0  0.9290790225914928 0.3129967514629171 0  0.9070553655912461 0.3229087948693581 0  0.8863870506537688 0.3354032268212687 0  0.867375468351841 0.3502978503657798 0  0.8502978503657798 0.367375468351841 0  0.8354032268212687 0.3863870506537689 0  0.822908794869358 0.4070553655912464 0  0.8129967514629171 0.4290790225914929 0  0.8058116365147896 0.4521368671424885 0  0.8014582251803892 0.4758926639489354 0  0.8 0.4999999999999999 0  0.8014582251803892 0.5241073360510646 0  0.8058116365147896 0.5478631328575115 0  0.8129967514629171 0.5709209774085071 0  0.8229087948693581 0.5929446344087538 0  0.8354032268212688 0.6136129493462312 0  0.8502978503657798 0.632624531648159 0  0.867375468351841 0.6497021496342202 0  0.8863870506537689 0.6645967731787313 0  0.9070553655912463 0.677091205130642 0  0.9290790225914929 0.6870032485370829 0  0.9521368671424885 0.6941883634852104 0  0.9758926639489354 0.6985417748196108 0  1 0.7 0  1 1 0  0.95 1 0  0.9485417748196108 0.9758926639489353 0  0.9441883634852104 0.9521368671424885 0  0.9370032485370829 0.9290790225914928 0  0.927091205130642 0.9070553655912463 0  0.9145967731787312 0.8863870506537688 0  0.8997021496342201 0.8673754683518409 0  0.882624531648159 0.8502978503657798 0  0.863612949346231 0.8354032268212686 0  0.8429446344087537 0.822908794869358 0  0.8209209774085071 0.8129967514629171 0  0.7978631328575114 0.8058116365147896 0  0.7741073360510646 0.8014582251803892 0  0.75 0.8 0  0.7258926639489353 0.8014582251803892 0  0.7021368671424885 0.8058116365147896 0  0.6790790225914928 0.8129967514629171 0  0.6570553655912461 0.8229087948693581 0  0.6363870506537688 0.8354032268212688 0  0.617375468351841 0.8502978503657798 0  0.6002978503657798 0.867375468351841 0  0.5854032268212687 0.8863870506537689 0  0.572908794869358 0.9070553655912463 0  0.5629967514629171 0.9290790225914929 0  0.5558116365147896 0.9521368671424885 0  0.5514582251803892 0.9758926639489355 0  0.55 0.9999999999999999 0  0.45 0.9999999999999999 0  0.4485417748196108 0.9758926639489353 0  0.4441883634852104 0.9521368671424885 0  0.4370032485370829 0.9290790225914928 0  0.427091205130642 0.9070553655912463 0  0.4145967731787313 0.8863870506537688 0  0.3997021496342201 0.8673754683518409 0  0.382624531648159 0.8502978503657798 0  0.363612949346231 0.8354032268212686 0  0.3429446344087536 0.822908794869358 0  0.3209209774085071 0.8129967514629171 0  0.2978631328575115 0.8058116365147896 0  0.2741073360510646 0.8014582251803892 0  0.25 0.8 0  0.2258926639489353 0.8014582251803892 0  0.2021368671424885 0.8058116365147896 0  0.1790790225914928 0.8129967514629171 0  0.1570553655912462 0.8229087948693581 0  0.1363870506537688 0.8354032268212688 0  0.117375468351841 0.8502978503657798 0  0.1002978503657797 0.867375468351841 0  0.08540322682126869 0.8863870506537689 0  0.07290879486935797 0.9070553655912463 0  0.06299675146291703 0.9290790225914929 0  0.05581163651478957 0.9521368671424885 0  0.0514582251803892 0.9758926639489355 0  0.04999999999999999 0.9999999999999999 0  0 1 0  -0 0.7000000000000001 0  0.0241073360510646 0.6985417748196108 0  0.04786313285751161 0.6941883634852104 0  0.07092097740850711 0.6870032485370829 0  0.09294463440875372 0.677091205130642 0  0.1136129493462312 0.6645967731787312 0  0.1326245316481591 0.6497021496342202 0  0.1497021496342202 0.632624531648159 0  0.1645967731787313 0.6136129493462312 0  0.177091205130642 0.5929446344087537 0  0.187003248537083 0.5709209774085071 0  0.1941883634852104 0.5478631328575115 0  0.1985417748196108 0.5241073360510646 0  0.2 0.5 0  0.1985417748196108 0.4758926639489353 0  0.1941883634852104 0.4521368671424885 0  0.1870032485370829 0.4290790225914928 0  0.177091205130642 0.4070553655912463 0  0.1645967731787313 0.3863870506537688 0  0.1497021496342202 0.3673754683518409 0  0.132624531648159 0.3502978503657798 0  0.113612949346231 0.3354032268212686 0  0.09294463440875361 0.322908794869358 0  0.07092097740850711 0.3129967514629171 0  0.04786313285751148 0.3058116365147896 0  0.02410733605106464 0.3014582251803892 0  0.6985417748196108 0.5241073360510646 0  0.7 0.5 0  0.6985417748196108 0.4758926639489353 0  0.6941883634852104 0.4521368671424885 0  0.6870032485370829 0.4290790225914928 0  0.677091205130642 0.4070553655912463 0  0.6645967731787312 0.3863870506537688 0  0.6497021496342201 0.3673754683518409 0  0.632624531648159 0.3502978503657798 0  0.613612949346231 0.3354032268212686 0  0.5929446344087537 0.322908794869358 0  0.5709209774085071 0.3129967514629171 0  0.5478631328575114 0.3058116365147896 0  0.5241073360510646 0.3014582251803892 0  0.4999999999999999 0.3 0  0.4758926639489353 0.3014582251803892 0  0.4521368671424885 0.3058116365147896 0  0.4290790225914928 0.3129967514629171 0  0.4070553655912462 0.3229087948693581 0  0.3863870506537688 0.3354032268212687 0  0.367375468351841 0.3502978503657798 0  0.3502978503657798 0.367375468351841 0  0.3354032268212687 0.3863870506537689 0  0.322908794869358 0.4070553655912464 0  0.3129967514629171 0.4290790225914929 0  0.3058116365147896 0.4521368671424885 0  0.3014582251803892 0.4758926639489354 0  0.3 0.4999999999999999 0  0.3014582251803892 0.5241073360510646 0  0.3058116365147896 0.5478631328575115 0  0.3129967514629171 0.5709209774085071 0  0.3229087948693581 0.5929446344087538 0  0.3354032268212687 0.6136129493462312 0  0.3502978503657798 0.632624531648159 0  0.367375468351841 0.6497021496342202 0  0.3863870506537689 0.6645967731787313 0  0.4070553655912463 0.677091205130642 0  0.4290790225914929 0.6870032485370829 0  0.4521368671424885 0.6941883634852104 0  0.4758926639489354 0.6985417748196108 0  0.4999999999999999 0.7 0  0.5241073360510646 0.6985417748196108 0  0.5478631328575116 0.6941883634852104 0  0.5709209774085071 0.6870032485370829 0  0.5929446344087537 0.677091205130642 0  0.6136129493462312 0.6645967731787312 0  0.6326245316481591 0.6497021496342202 0  0.6497021496342202 0.632624531648159 0  0.6645967731787312 0.6136129493462312 0  0.677091205130642 0.5929446344087537 0  0.6870032485370829 0.5709209774085071 0  0.6941883634852104 0.5478631328575115 0  0 0.15 0  1 0.15 0  1 0.85 0  0 0.8500000000000001 0  0 0.075 0  1 0.075 0  1 0.925 0  0 0.925 0  0.5 0.8127595604293815 0  0.5069440078039168 0.190422209288238 0  0.25 0.3127595604293815 0  0.756944007803917 0.3095777907117619 0  0.756944007803917 0.6904222092882382 0  0.25 0.6872404395706185 0  0 0.225 0  0.4255768646051012 0.2241073097134061 0  1 0.7749999999999999 0  0.6773391559270888 0.2766774022734219 0  1 0.225 0  0.6755768646051011 0.7241073097134062 0  0 0.7750000000000001 0  0.5818971135297744 0.2287925518358889 0  0.8318971135297746 0.728792551835889 0  0.1659156081861886 0.7301636995921477 0  0.08376842746533225 0.2299656297760495 0  0.4236002201977974 0.7746535834185855 0  0.0840843918138115 0.7698363004078523 0  0.3340843918138113 0.7301636995921477 0  0.3340843918138114 0.2698363004078523 0  0.9159156081861887 0.2301636995921477 0  0.5840843918138116 0.7698363004078522 0  0.1659156081861887 0.2698363004078523 0  0.9162315725346678 0.7700343702239506 0  0.8340843918138114 0.2698363004078523 0  0.75 0.6146645247768686 0  0.5 0.1125158665330878 0  0.75 0.3874841334669124 0  0.2504983345544904 0.6122915843562002 0  0.2504983345544902 0.3877084156437999 0  0.5 0.8879783056303169 0  0.7005361650220154 0.3333055947145943 0  0.70416808765371 0.6599554817221275 0  0.449930214263529 0.1678187287522426 0  0.2247310981387008 0.7415600637745463 0  0.5155081196221678 0.7563797802146907 0  0.2752689018612993 0.2584399362254537 0  0.05605196690611226 0.8246131191226815 0  0.9439480330938878 0.1
[...]
<PointData  Scalars="Temperature"> 
<DataArray  type="Float64"  Name="Temperature"  format="ascii">1.2558027379760287e+02  1.3823537114037654e+02  1.3820946921923033e+02  1.3792549331547593e+02  1.3713050644132778e+02  1.3589243124045288e+02  1.3423511637845260e+02  1.3217751787347242e+02  1.2974470918554661e+02  1.2690923974641721e+02  1.2359907499997936e+02  1.1985340654357610e+02  1.1577741284645154e+02  1.1145252915886287e+02  1.0696067259913529e+02  1.0241453180568125e+02  9.7841665516164852e+01  9.3251760653665386e+01  8.8758755528461393e+01  8.4346141538788444e+01  8.0215220071247444e+01  7.6472587900278427e+01  7.3229754539602212e+01  7.0654170898448072e+01  6.8716964498466581e+01  6.7399618035666364e+01  6.6570885687080178e+01  6.6145158042369232e+01  6.6018097243007333e+01  6.5136127795857917e+01  6.5032237023671385e+01  6.4687726128446201e+01  6.3992508011639480e+01  6.2859084645414683e+01  6.1165044408147651e+01  5.8918640182684967e+01  5.6198519244578691e+01  5.3110179027271137e+01  4.9819274305926896e+01  4.6518670498814132e+01  4.3375753905006526e+01  4.0515697154202826e+01  3.7995822672612370e+01  3.5819922077793542e+01  3.3966267965867083e+01  3.2422646106600958e+01  3.1125793860022007e+01  3.0057905526397107e+01  2.9195468727014205e+01  2.8495177870846614e+01  2.7935418577103768e+01  2.7485666526624041e+01  2.7136718060483492e+01  2.6881630922783323e+01  2.6719700155233191e+01  2.6662254443723960e+01  2.6655679971786565e+01  2.9103660184480859e+01  2.9225696663547431e+01  2.9579002331701254e+01  3.0131914445876131e+01  3.0818490812352898e+01  3.1555135939714493e+01  3.2229960086599228e+01  3.2750179595178629e+01  3.3026049366594840e+01  3.3028110778784743e+01  3.2714294832942663e+01  3.2166624598398407e+01  3.1455955806502061e+01  3.0678120639692573e+01  2.9920917063203479e+01  2.9224060373068422e+01  2.8585199294414878e+01  2.7997704705986479e+01  2.7422958814620458e+01  2.6848793738927352e+01  2.6287416593123933e+01  2.5736406836664802e+01  2.5233904463891605e+01  2.4803762543466714e+01  2.4477193762945756e+01  2.4275340134913780e+01  2.4204431437659732e+01  2.2866048984828833e+01  2.2868355969986208e+01  2.2897936927389463e+01  2.2981313895446323e+01  2.3112653182096150e+01  2.3292360192578311e+01  2.3522707554202842e+01  2.3808547617809616e+01  2.4159049988591299e+01  2.4583589407559092e+01  2.5094984121734530e+01  2.5697266266596387e+01  2.6381387457931918e+01  2.7157192111450541e+01  2.8007153239957198e+01  2.8957780195359764e+01  2.9992572109882044e+01  3.1101082607670921e+01  3.2240352086525291e+01  3.3362288753538742e+01  3.4368422853030303e+01  3.5224867142625975e+01  3.5838133719674701e+01  3.6234072843807262e+01  3.6411699376249373e+01  3.6443189984986084e+01  3.6422300136571231e+01  3.6405746693529657e+01  3.6727259972711039e+01  3.6862316254304446e+01  3.7247775942636729e+01  3.7908921149738511e+01  3.8895000271292545e+01  4.0268445068136479e+01  4.2011401057670930e+01  4.4121931929767022e+01  4.6501755826141576e+01  4.9087465850890261e+01  5.1694720415796731e+01  5.4159780497458847e+01  5.6360781648802956e+01  5.8153532193419764e+01  5.9518195219079558e+01  6.0431752984386790e+01  6.0969018091029923e+01  6.1189806305423325e+01  6.1165243497327253e+01  6.0974304880563999e+01  6.0660380169057163e+01  6.0264689359579059e+01  5.9837820418659668e+01  5.9425902120255493e+01  5.9073722007957016e+01  5.8838064437345402e+01  5.8744197931901702e+01  5.8743763756454939e+01  6.2500251363222837e+01  6.2542714362320780e+01  6.2675206043369784e+01  6.2905129826868333e+01  6.3262249549180488e+01  6.3793469284845671e+01  6.4581833760406568e+01  6.5722196321966976e+01  6.7323596630813554e+01  6.9436458591885170e+01  7.2133832456454599e+01  7.5362163953836429e+01  7.9042112275292013e+01  8.2961466815065094e+01  8.6952327331907568e+01  9.0871121547476164e+01  9.4689004255604658e+01  9.8468779361308506e+01  1.0233523097529218e+02  1.0628383906040439e+02  1.1028997341625171e+02  1.1419638048376972e+02  1.1785584046392029e+02  1.2104527616906137e+02  1.2347372500148752e+02  1.2503366629452044e+02  3.0184221669580726e+01  3.0953692008486914e+01  3.1903235244586540e+01  3.3031897045137562e+01  3.4357796305981495e+01  3.5947545420785310e+01  3.7880732851743687e+01  4.0206588489058682e+01  4.2987637358332535e+01  4.6141361014999013e+01  4.9646078965145321e+01  5.3455753307758428e+01  5.7452951014152283e+01  6.1606244111838201e+01  6.5863696427258034e+01  7.0208984900565355e+01  7.4550907530879400e+01  7.8838828337811933e+01  8.2877591633560840e+01  8.6525545423421676e+01  8.9457522693396754e+01  9.1549065909836443e+01  9.2580183924177177e+01  9.2501129447168708e+01  9.1260551247769129e+01  8.9027549049819243e+01  8.5961988357698985e+01  8.2322980845458460e+01  7.8424270626810880e+01  7.4504065202954379e+01  7.0735529127920444e+01  6.7078483678482868e+01  6.3611100197835327e+01  6.0251698538022993e+01  5.6951685022743625e+01  5.3736989209307900e+01  5.0568424968934266e+01  4.7574037975559385e+01  4.4747634915994077e+01  4.2174831719700975e+01  3.9831713394342387e+01  3.7733980180093688e+01  3.5855895619250752e+01  3.4216142884759655e+01  3.2771583389588770e+01  3.1548830211535432e+01  3.0566863879676649e+01  2.9836690490189746e+01  2.9376693127849002e+01  2.9193244602030596e+01  2.9281664318314654e+01  2.9620624040131261e+01  1.3218255284871077e+02  2.7863052653996043e+01  2.3500942082734248e+01  6.0535446890112567e+01  1.3638899993095998e+02  2.7027592442860218e+01  2.3058639918159614e+01  5.9322346383228719e+01  3.8682870028930601e+01  6.5097401349929470e+01  1.0012267199342639e+02  3.6139404404655522e+01  2.7921153135406556e+01  6.2061406464554544e+01  1.2785938525572648e+02  7.5637851440861283e+01  2.3958803114534430e+01  4.3076030390019447e+01  2.8681969934748881e+01  3.0263192640186404e+01  6.1802111122117708e+01  5.5663729921252290e+01  2.6089212672575552e+01  6.2307709466528209e+01  1.2416513050376351e+02  4.4678886279672547e+01  6.1923419998438874e+01  5.4228827566412299e+01  9.0020624718244591e+01  2.9646687942716131e+01  3.4545420764248085e+01  1.1280670720104904e+02  2.4447032509522053e+01  3.2633150927376960e+01  2.8504777738217143e+01  6.5716165205341468e+01  3.4442344559403779e+01  6.8140386418581599e+01  9.5672081161756523e+01  3.7537665745217907e+01  3.8790222286366664e+01  2.9073472546135868e+01  7.0727908935493289e+01  6.0489679807177481e+01  3.8384640610364301e+01  9.8112262494055599e+01  6.1035471408508776e+01  2.8499956292627417e+01  1.2935072968406845e+02  2.3850692300157927e+01  6.8051887167092332e+01  2.8576493440321496e+01  3.8741326262837077e+01  4.1305461123712568e+01  6.4133085888553637e+01  1.0599659085744953e+02  5.9652495664439201e+01  9.3731179531294273e+01  3.5960064021171050e+01  6.5619164491734509e+01  3.2624835691749993e+01  2.9596807091972995e+01  9.0125402154843073e+01  7.6141761015572968e+01  3.6557468502574949e+01  3.6843511584143478e+01  1.0569585065382614e+02  5.7995963638342211e+01  5.9803979352303237e+01  2.7519654333324670e+01  3.3483481454620929e+01  4.8883238052545302e+01  8.2266578105455594e+01  8.4547299362457011e+01  3.2057430482184451e+01  3.2782465815755131e+01  4.8077350855601054e+01  2.7179781570495479e+01  3.5089318659557080e+01  3.0985686954097346e+01  6.5574504533385650e+01  8.3449528544296797e+01  4.9208995374255601e+01  5.0080564396486878e+01  6.1615811406441807e+01  2.5175116953215710e+01  2.5190706052601442e+01  4.1143098856083817e+01  1.1992687771674879e+02  6.2232373700080423e+01  3.0509752846584739e+01  6.1699062451340296e+01  1.1777280657137565e+02  6.2673140809321929e+01  2.9152276497808391e+01  3.1107701055324060e+01  2.4264164786107699e+01  1.2526865457774035e+02  2.7783343077155553e+01  2.3415561624976661e+01  1.3306934173947334e+02  6.0272738869306941e+01  3.3751318875377393e+01  2.6942278832528398e+01  6.2785836959389407e+01  2.8972080590996040e+01  3.4195551532703661e+01  5.5418256040206622e+01  1.1205929796183860e+02  2.9418166185840711e+01  8.9055080084630305e+01  6.3640571920625483e+01  6.1303536718601528e+01  1.2573033373764845e+02  2.4340199749572413e+01  6.6878979186683949e+01  1.0056409533765230e+02  3.7230576751866849e+01  2.6187636098409016e+01  9.6336401681373559e+01  6.3810472729594153e+01  4.2793484977737684e+01  4.3334123686543087e+01  4.5072702079903593e+01  7.4126213359294624e+01  3.0797773077132874e+01  7.7537618209435223e+01  3.0334499927474798e+01  3.9238980080465026e+01  4.3967415469066481e+01  5.5369107221280487e+01  3.9191880662352119e+01  2.6300864249865107e+01  5.3474997713935103e+01  6.1029751051632211e+01  9.1005320700094003e+01  5.4571216137530755e+01  1.1132851045694481e+02  3.2137696960965044e+01  3.4966979061503025e+01  6.9702808101829547e+01  1.2753594369275922e+02  3.2941543825441670e+01  2.8862221346811499e+01  6.1661257616194867e+01  3.7081056146365164e+01  6.1187491590293078e+01  2.8298562876666878e+01  3.4252544942022197e+01  2.3755457312567515e+01  6.8594840899292194e+01  3.6075351837983582e+01  3.6393291661334196e+01  6.6772088854047624e+01  1.2993190749628036e+02  2.8754133623887917e+01  2.9009349708815897e+01  2.8131074903063368e+01  7.2002552239896758e+01  9.6052823329010394e+01  6.5214330290374804e+01  9.3703251724776237e+01  6.2568504187811328e+01  6.6731856553613028e+01  6.4631042968440113e+01  3.3123845789057327e+01  3.4331745159625925e+01  3.6396766316958704e+01  3.6722001009731983e+01  3.7920285777119169e+01  2.3741801240240672e+01  6.2289855507914190e+01  2.3265455597688693e+01  2.8964065040215512e+01  1.2625598499486640e+02  2.6753866980188764e+01  1.3774855360104115e+02  2.7419344727501233e+01  2.7278371613905829e+01  1.3442758760677526e+02  2.2916540744079690e+01  5.8903816636510363e+01  2.4129653833929403e+01  5.9894171978781877e+01  5.9652411435607014e+01  9.2291889705088991e+01  7.1326960866501580e+01  6.2255757568749964e+01  9.4671921689184359e+01  3.9180732685530351e+01  2.4674034331729661e+01  5.7724531081393437e+01  1.0449555120003443e+02  2.7685589645732676e+01  2.8020349618718484e+01  4.0865319810008970e+01  2.4030626975486246e+01  3.6238590844192878e+01  6.3620981893477669e+01  6.4831872817197421e+01  9.9645807774155173e+01  1.1773449293806253e+02  5.1975072625383874e+01  6.3123059340842033e+01  3.6331005448347454e+01  3.4830288060505083e+01  3.7072076594697258e+01  2.9781500949333346e+01  2.9913233941679284e+01  2.3179427328213293e+01  1.3525000885391694e+02  1.2207305251105385e+02  2.6850667507381459e+01  5.9675739287444607e+01  1.0452367283479407e+02  3.1306894492931139e+01  5.9434025870057589e+01  2.8793536812450217e+01  2.9701342311222248e+01  3.8720712912878476e+01  7.9870082588080081e+01  3.1395649861753100e+01  4.6706644694377999e+01  1.3707749933816987e+02  2.6953963574277680e+01  2.2987250766667266e+01  5.9109961339091640e+01  4.7744286782847681e+01  2.9343564118100304e+01  7.1902137821359446e+01  6.0633930933413133e+01  6.0875986162914948e+01  2.8284323283358155e+01  2.8152058849459028e+01  5.1480276362268754e+01  1.2880459008267528e+02  1.2684660772173817e+02  1.3077594088640600e+02  7.3790663291714054e+01  7.2959825944099990e+01  1.2267332534691221e+02  4.0596113195987790e+01  6.3295623837077265e+01  6.1356946049262476e+01  3.0390609014231156e+01  4.1101008089262209e+01  3.6721887009861945e+01  8.1930621597000751e+01  3.2029125786680453e+01  2.3613300036360148e+01  2.9333329161000410e+01  2.8549948203627753e+01  5.6800665586821310e+01  3.6529343411618598e+01  3.2667861681993422e+01  6.5881626684404480e+01  6.5296300621174666e+01  3.1675854350732557e+01  3.2383651022112211e+01  8.6693832008575527e+01  8.8885721311446957e+01  4.0912309671043879e+01  2.5583370087750581e+01  3.6931607651158124e+01  4.8183789964623323e+01  9.3721907595944913e+01  5.2301511081548597e+01  1.0870406799393679e+02  5.7197113631121368e+01  5.9351570735784364e+01  6.1795569861196185e+01  9.6110708664807291e+01  1.0117215103978006e+02  6.0641550315735323e+01  3.5223061102923197e+01  3.5732451782580888e+01  9.6745456696771015e+01  6.3093610811634640e+01  9.2825508079378722e+01  1.0794989791160010e+02  5.8755920842906335e+01  6.5753652033249793e+01  3.7220174001650605e+01  3.0299075748274841e+01  3.0324005153788885e+01  8.0441165099342001e+01  7.9869670714747869e+01  1.1631562278685418e+02  2.9544678854596032e+01  2.9194591396928228e+01  2.8271863535746846e+01  7.8687406282874832e+01  3.1387215666361740e+01  3.8714066227205741e+01  7.8027499269108276e+01  4.0986897451116299e+01  4.2643535549203897e+01  3.7589703031217596e+01  6.8013480064550166e+01  6.6526034800523462e+01  4.0227674324893897e+01  4.5328788365214869e+01  2.4116401857935060e+01  1.2180036326299305e+02  3.3153684941378430e+01  6.0251440914633321e+01  2.5375226677590202e+01  2.4802272159549972e+01  3.4635837220877256e+01  3.3057887792956947e+01  3.1680714744865792e+01  6.1248661971147662e+01  8.4817433918539578e+01  8.6954342620708715e+01  3.2908879349476159e+01  3.3412226328912908e+01  4.8086232894554861e+01  5.6614232021825522e+01  6.4734534298173642e+01  5.2358608260271531e+01  3.0445058799010763e+01  2.8911262374475847e+01  2.9125035706111994e+01  6.1441018976499123e+01  5.9522621171979047e+01  2.2867205716227836e+01  2.6658778447418253e+01  1.3822448916954576e+02  5.8742967787108896e+01  6.7881832153526375e+01  5.1441515401028234e+01  8.6242604319094653e+01  4.3099564894566910e+01  3.1010834968800708e+01  3.1354785078830854e+01  6.4941102206489262e+01  6.6302487731931365e+01  9.3256135065957423e+01  3.4454384768648637e+01  2.5715745052775212e+01  2.5389592105824327e+01  2.4873760269730091e+01  2.5745961110190049e+01  3.3656429906146236e+01  8.7163411817587004e+01  6.9482005782491981e+01  3.6624478815900645e+01  3.6447849942179474e+01  3.7181320705845884e+01  3.2893477026922575e+01  2.9296275661084106e+01  7.6078827627545124e+01  7.4936173198813776e+01  1.1492327346198471e+02  9.1560735450239079e+01  4.7280461436259962e+01  1.2114889818638432e+02  6.3500750573791194e+01  5.1947941964962361e+01  3.3596526639436576e+01  1.2691267715350934e+02  7.1034241114787704e+01  2.7465461805372168e+01  2.7631258930597308e+01  2.4006019389735616e+01  6.2376320586050170e+01  1.0963554243366228e+02  5.6144245858675845e+01  6.1745035133549088e+01  6.2221229982284100e+01  6.2003985341236636e+01  8.4911608624989540e+01  3.1368612735782349e+01  1.3104551613313581e+02  2.4669004627693724e+01  9.2491756836556220e+01  4.6321122389126877e+01  6.1508350250157299e+01  2.8475980825568715e+01  2.8043769610019528e+01  4.1386242366340973e+01  9.0842996725337969e+01  3.4865552424480526e+01  1.0417511533667010e+02  3.2411083812193404e+01  2.4078394177905007e+01  6.2917567955909298e+01  4.6000576989190797e+01  8.9686134593777055e+01  2.9974205154547224e+01  6.5678061974887910e+01  2.6761404305264289e+01  5.8856789172620822e+01  1.3788660289121819e+02  2.2901760773728085e+01  5.9116052437911904e+01  3.4770176323818824e+01  2.5069411321003514e+01  3.2029134170993856e+01  6.2854455529658566e+01  4.4960201421208190e+01  2.9806724263892178e+01  3.3944495084017802e+01  1.2381601138943854e+02  6.4497164878916536e+01  6.2323068242222348e+01  6.1891286042880786e+01  3.3790855572084389e+01  4.9758240135139069e+01  5.2942325941094374e+01  6.2508304759197507e+01  2.9326775645986768e+01  6.1911418991907752e+01  3.3280672042266652e+01  6.2521201489970217e+01  1.0023107270636660e+02  6.8803774942371561e+01  2.6907183980039584e+01  1.0280889146005201e+02  3.8981108083291318e+01  2.6535307048262901e+01  2.7831791843124734e+01  2.7624452773453704e+01  3.7909093043730181e+01  3.7427317723547851e+01  2.4249529923082857e+01  6.4226975986168668e+01  1.0856865606994187e+02  5.5466970726481790e+01  3.8410030675661517e+01  2.9119586977633372e+01  6.7764497177502307e+01  6.1600592925826163e+01  2.3851528288723735e+01  9.7873745763935091e+01  6.1406382138873241e+01  6.5272725874333446e+01  3.6673968208146427e+01  6.5884589808264494e+01  6.2965349597675861e+01  1.1360025777405637e+02  2.8891828909528236e+01  6.1012328150202059e+01  6.2205145656694093e+01  2.9280776616827925e+01  2.8841170412072891e+01  2.8829678210645390e+01  2.4035644356441157e+01  1.2920676833923204e+02  5.1268254530947267e+01  9.9172541077990147e+01  3.6886505225599919e+01  6.4750008605226739e+01  5.8486562096353857e+01  4.8976765304337484e+01  7.1947253905121187e+01  9.4149000608583577e+01  1.0228106111042700e+02  3.1231814913245458e+01  5.9961183898027379e+01  2.7697314258586651e+01  2.6023258621622812e+01  6.5059671838025068e+01  4.2849976083249956e+01  1.1962946961349991e+02  3.0401579950193668e+01  1.1553482465712676e+02  1.1833211029226607e+02  2.4441321521658665e+01  2.4218661260075052e+01  1.2552498007832446e+02  1.2581316108318502e+02  8.2689246784573712e+01  4.3148463594628886e+01  3.3616667206286131e+01  3.3885478649036543e+01  4.3189033906936238e+01  3.9836433547419404e+01  3.6955420546513238e+01  2.3696386571084055e+01  3.6433558077504713e+01  4.6969722611409587e+01  9.4418945271260483e+01  8.7189941827020448e+01  3.3691829828224030e+01  3.1785151482496723e+01  3.6443093733780792e+01  4.1988315468652480e+01  2.8561861459175500e+01  9.2724339109379130e+01  6.8016322852102121e+01  6.1288534848840420e+01  6.7790350398614208e+01  6.6911614635486529e+01  9.8287835092245146e+01  2.3380718703105590e+01  1.3332245852937817e+02  1.3231469500259351e+02  1.3241737898864466e+02  2.3546789046129273e+01  2.3299492592486470e+01  2.5999646630856905e+01  6.0223184886180704e+01  2.6887304988438270e+01  7.2890006842661862e+01  2.8301318638313290e+01  2.8132310012872999e+01  2.7855357532549675e+01  6.0670108628529562e+01  6.0211933020114479e+01  6.0458106847352092e+01  3.6533252404520141e+01  1.3417211114600195e+02  5.9979058760138486e+01  2.7502840953246384e+01  2.4634183899711672e+01  6.1568541719003711e+01  3.8813392362277625e+01  5.7786643452295507e+01  9.7222865279805120e+01  6.5815656874587503e+01  2.9059228389220120e+01  6.2443611761263746e+01  2.9828538245905815e+01  2.7199822115969678e+01  2.7414907779410651e+01  2.6397594314717576e+01  1.0732801336298358e+02  3.8205282804466876e+01  1.2471786713360333e+02  2.6680189744718515e+01  6.1200083144106330e+01  2.9691177466518774e+01  6.9472867262387723e+01  6.1627760894520165e+01  2.3455726911314059e+01  4.0026436506752532e+01  1.2433961822730983e+02  2.8375278406475395e+01  2.6677638610966095e+01  3.1870202182211074e+01  8.7947931113034869e+01  5.6578855266735516e+01  3.0984122774687211e+01  3.9865133652809902e+01  3.5993234746790364e+01  3.5063693793630257e+01  1.0921717594313870e+02  8.3675261740256616e+01  5.3027778735215136e+01  3.6804808908283249e+01  3.2070737080075624e+01  3.5460067592949905e+01  3.7638736145030187e+01  3.7655684106338157e+01  6.0799549902197796e+01  6.3833847704721123e+01  5.4743538055346534e+01  2.9067287283212423e+01  6.2390929134706305e+01  3.0117236495574438e+01  9.8486450236798049e+01  6.3292321526346115e+01  6.7055970845693281e+01  6.6848514584000625e+01  6.9783672499302455e+01  3.3120169430716743e+01  4.5559422475301062e+01  2.9175273711016320e+01  2.9509382635170436e+01  2.8850342801092971e+01  4.0632161382617682e+01  2.4247412845892036e+01  2.8899708230047633e+01  4.4080517259621665e+01  1.2493626008638824e+02  1.2773512299254385e+02  1.1466836004879829e+02  4.2433668965612483e+01  5.7328242388401300e+01  5.5165958929763228e+01  3.3274171428957914e+01  3.3947847663449018e+01  1.1105603100690145e+02  8.8309043459012457e+01  2.4355923066960671e+01  7.0998624635777873e+01  7.4912047326205041e+01  3.1895546613482772e+01  1.0707294735518302e+02  3.1214880872041395e+01  7.5892166287450408e+01  3.0619594729471565e+01  7.6529564761609251e+01  4.4438815091806489e+01  4.5831521753676235e+01  3.5064693294714608e+01  9.0930631711813334e+01  3.4979837863300986e+01  3.0480788119906293e+01  3.6314486460394193e+01  3.5078035815554379e+01  9.1538588887870063e+01  3.8116103357441808e+01  4.3022793178622678e+01  7.9257477475280808e+01  4.3884777148394583e+01  3.0347389480334108e+01  7.5467988170385240e+01  2.3294995534850376e+01  1.3376911974332151e+02  6.950