<?xml version="1.0"?>
<VTKFile type="UnstructuredGrid"  version="0.1"  >
<UnstructuredGrid>
<Piece  NumberOfPoints="2331" NumberOfCells="4248">
<Points>
<DataArray  type="Float64"  NumberOfComponents="3"  format="ascii">0 0.3 0  0 0 0  0.04999999999999999 0 0  0.0514582251803892 0.02410733605106462 0  0.0558116365147896 0.04786313285751154 0  0.06299675146291706 0.07092097740850717 0  0.07290879486935808 0.09294463440875382 0  0.08540322682126872 0.1136129493462312 0  0.1002978503657798 0.132624531648159 0  0.117375468351841 0.1497021496342203 0  0.1363870506537689 0.1645967731787313 0  0.1570553655912463 0.177091205130642 0  0.1790790225914929 0.187003248537083 0  0.2021368671424885 0.1941883634852104 0  0.2258926639489354 0.1985417748196108 0  0.25 0.2 0  0.2741073360510646 0.1985417748196108 0  0.2978631328575116 0.1941883634852104 0  0.3209209774085071 0.187003248537083 0  0.3429446344087537 0.177091205130642 0  0.3636129493462312 0.1645967731787313 0  0.3826245316481591 0.1497021496342202 0  0.3997021496342202 0.132624531648159 0  0.4145967731787313 0.1136129493462312 0  0.427091205130642 0.09294463440875371 0  0.4370032485370829 0.07092097740850713 0  0.4441883634852104 0.04786313285751155 0  0.4485417748196108 0.02410733605106461 0  0.45 0 0  0.55 0 0  0.5514582251803892 0.02410733605106462 0  0.5558116365147896 0.04786313285751154 0  0.5629967514629171 0.07092097740850717 0  0.5729087948693581 0.09294463440875382 0  0.5854032268212688 0.1136129493462312 0  0.6002978503657798 0.132624531648159 0  0.617375468351841 0.1497021496342203 0  0.6363870506537689 0.1645967731787313 0  0.6570553655912463 0.177091205130642 0  0.6790790225914929 0.187003248537083 0  0.7021368671424885 0.1941883634852104 0  0.7258926639489354 0.1985417748196108 0  0.75 0.2 0  0.7741073360510646 0.1985417748196108 0  0.7978631328575116 0.1941883634852104 0  0.8209209774085071 0.187003248537083 0  0.8429446344087537 0.177091205130642 0  0.8636129493462312 0.1645967731787313 0  0.8826245316481591 0.1497021496342202 0  0.8997021496342202 0.132624531648159 0  0.9145967731787312 0.1136129493462312 0  0.927091205130642 0.09294463440875371 0  0.9370032485370829 0.07092097740850713 0  0.9441883634852104 0.04786313285751155 0  0.9485417748196108 0.02410733605106461 0  0.95 0 0  1 0 0  1 0.3 0  0.9758926639489353 0.3014582251803892 0  0.9521368671424885 0.3058116365147896 0  0.9290790225914928 0.3129967514629171 0  0.9070553655912461 0.3229087948693581 0  0.8863870506537688 0.3354032268212687 0  0.867375468351841 0.3502978503657798 0  0.8502978503657798 0.367375468351841 0  0.8354032268212687 0.3863870506537689 0  0.822908794869358 0.4070553655912464 0  0.8129967514629171 0.4290790225914929 0  0.8058116365147896 0.4521368671424885 0  0.8014582251803892 0.4758926639489354 0  0.8 0.4999999999999999 0  0.8014582251803892 0.5241073360510646 0  0.8058116365147896 0.5478631328575115 0  0.8129967514629171 0.5709209774085071 0  0.8229087948693581 0.5929446344087538 0  0.8354032268212688 0.6136129493462312 0  0.8502978503657798 0.632624531648159 0  0.867375468351841 0.6497021496342202 0  0.8863870506537689 0.6645967731787313 0  0.9070553655912463 0.677091205130642 0  0.9290790225914929 0.6870032485370829 0  0.9521368671424885 0.6941883634852104 0  0.9758926639489354 0.6985417748196108 0  1 0.7 0  1 1 0  0.95 1 0  0.9485417748196108 0.9758926639489353 0  0.9441883634852104 0.9521368671424885 0  0.9370032485370829 0.9290790225914928 0  0.927091205130642 0.9070553655912463 0  0.9145967731787312 0.8863870506537688 0  0.8997021496342201 0.8673754683518409 0  0.882624531648159 0.8502978503657798 0  0.863612949346231 0.8354032268212686 0  0.8429446344087537 0.822908794869358 0  0.8209209774085071 0.8129967514629171 0  0.7978631328575114 0.8058116365147896 0  0.7741073360510646 0.8014582251803892 0  0.75 0.8 0  0.7258926639489353 0.8014582251803892 0  0.7021368671424885 0.8058116365147896 0  0.6790790225914928 0.8129967514629171 0  0.6570553655912461 0.8229087948693581 0  0.6363870506537688 0.8354032268212688 0  0.617375468351841 0.8502978503657798 0  0.6002978503657798 0.867375468351841 0  0.5854032268212687 0.8863870506537689 0  0.572908794869358 0.9070553655912463 0  0.5629967514629171 0.9290790225914929 0  0.5558116365147896 0.9521368671424885 0  0.5514582251803892 0.9758926639489355 0  0.55 0.9999999999999999 0  0.45 0.9999999999999999 0  0.4485417748196108 0.9758926639489353 0  0.4441883634852104 0.9521368671424885 0  0.4370032485370829 0.9290790225914928 0  0.427091205130642 0.9070553655912463 0  0.4145967731787313 0.8863870506537688 0  0.3997021496342201 0.8673754683518409 0  0.382624531648159 0.8502978503657798 0  0.363612949346231 0.8354032268212686 0  0.3429446344087536 0.822908794869358 0  0.3209209774085071 0.8129967514629171 0  0.2978631328575115 0.8058116365147896 0  0.2741073360510646 0.8014582251803892 0  0.25 0.8 0  0.2258926639489353 0.8014582251803892 0  0.2021368671424885 0.8058116365147896 0  0.1790790225914928 0.8129967514629171 0  0.1570553655912462 0.8229087948693581 0  0.1363870506537688 0.8354032268212688 0  0.117375468351841 0.8502978503657798 0  0.1002978503657797 0.867375468351841 0  0.08540322682126869 0.8863870506537689 0  0.07290879486935797 0.9070553655912463 0  0.06299675146291703 0.9290790225914929 0  0.05581163651478957 0.9521368671424885 0  0.0514582251803892 0.9758926639489355 0  0.04999999999999999 0.9999999999999999 0  0 1 0  -0 0.7000000000000001 0  0.0241073360510646 0.6985417748196108 0  0.04786313285751161 0.6941883634852104 0  0.07092097740850711 0.6870032485370829 0  0.09294463440875372 0.677091205130642 0  0.1136129493462312 0.6645967731787312 0  0.1326245316481591 0.6497021496342202 0  0.1497021496342202 0.632624531648159 0  0.1645967731787313 0.6136129493462312 0  0.177091205130642 0.5929446344087537 0  0.187003248537083 0.5709209774085071 0  0.1941883634852104 0.5478631328575115 0  0.1985417748196108 0.5241073360510646 0  0.2 0.5 0  0.1985417748196108 0.4758926639489353 0  0.1941883634852104 0.4521368671424885 0  0.1870032485370829 0.4290790225914928 0  0.177091205130642 0.4070553655912463 0  0.1645967731787313 0.3863870506537688 0  0.1497021496342202 0.3673754683518409 0  0.132624531648159 0.3502978503657798 0  0.113612949346231 0.3354032268212686 0  0.09294463440875361 0.322908794869358 0  0.07092097740850711 0.3129967514629171 0  0.04786313285751148 0.3058116365147896 0  0.02410733605106464 0.3014582251803892 0  0.6985417748196108 0.5241073360510646 0  0.7 0.5 0  0.6985417748196108 0.4758926639489353 0  0.6941883634852104 0.4521368671424885 0  0.6870032485370829 0.4290790225914928 0  0.677091205130642 0.4070553655912463 0  0.6645967731787312 0.3863870506537688 0  0.6497021496342201 0.3673754683518409 0  0.632624531648159 0.3502978503657798 0  0.613612949346231 0.3354032268212686 0  0.5929446344087537 0.322908794869358 0  0.5709209774085071 0.3129967514629171 0  0.5478631328575114 0.3058116365147896 0  0.5241073360510646 0.3014582251803892 0  0.4999999999999999 0.3 0  0.4758926639489353 0.3014582251803892 0  0.4521368671424885 0.3058116365147896 0  0.4290790225914928 0.3129967514629171 0  0.4070553655912462 0.3229087948693581 0  0.3863870506537688 0.3354032268212687 0  0.367375468351841 0.3502978503657798 0  0.3502978503657798 0.367375468351841 0  0.3354032268212687 0.3863870506537689 0  0.322908794869358 0.4070553655912464 0  0.3129967514629171 0.4290790225914929 0  0.3058116365147896 0.4521368671424885 0  0.3014582251803892 0.4758926639489354 0  0.3 0.4999999999999999 0  0.3014582251803892 0.5241073360510646 0  0.3058116365147896 0.5478631328575115 0  0.3129967514629171 0.5709209774085071 0  0.3229087948693581 0.5929446344087538 0  0.3354032268212687 0.6136129493462312 0  0.3502978503657798 0.632624531648159 0  0.367375468351841 0.6497021496342202 0  0.3863870506537689 0.6645967731787313 0  0.4070553655912463 0.677091205130642 0  0.4290790225914929 0.6870032485370829 0  0.4521368671424885 0.6941883634852104 0  0.4758926639489354 0.6985417748196108 0  0.4999999999999999 0.7 0  0.5241073360510646 0.6985417748196108 0  0.5478631328575116 0.6941883634852104 0  0.5709209774085071 0.6870032485370829 0  0.5929446344087537 0.677091205130642 0  0.6136129493462312 0.6645967731787312 0  0.6326245316481591 0.6497021496342202 0  0.6497021496342202 0.632624531648159 0  0.6645967731787312 0.6136129493462312 0  0.677091205130642 0.5929446344087537 0  0.6870032485370829 0.5709209774085071 0  0.6941883634852104 0.5478631328575115 0  0 0.15 0  1 0.15 0  1 0.85 0  0 0.8500000000000001 0  0 0.075 0  1 0.075 0  1 0.925 0  0 0.925 0  0.5 0.8127595604293815 0  0.5069440078039168 0.190422209288238 0  0.25 0.3127595604293815 0  0.756944007803917 0.3095777907117619 0  0.756944007803917 0.6904222092882382 0  0.25 0.6872404395706185 0  0 0.225 0  0.4255768646051012 0.2241073097134061 0  1 0.7749999999999999 0  0.6773391559270888 0.2766774022734219 0  1 0.225 0  0.6755768646051011 0.7241073097134062 0  0 0.7750000000000001 0  0.5818971135297744 0.2287925518358889 0  0.8318971135297746 0.728792551835889 0  0.1659156081861886 0.7301636995921477 0  0.08376842746533225 0.2299656297760495 0  0.4236002201977974 0.7746535834185855 0  0.0840843918138115 0.7698363004078523 0  0.3340843918138113 0.7301636995921477 0  0.3340843918138114 0.2698363004078523 0  0.9159156081861887 0.2301636995921477 0  0.5840843918138116 0.7698363004078522 0  0.1659156081861887 0.2698363004078523 0  0.9162315725346678 0.7700343702239506 0  0.8340843918138114 0.2698363004078523 0  0.75 0.6146645247768686 0  0.5 0.1125158665330878 0  0.75 0.3874841334669124 0  0.2504983345544904 0.6122915843562002 0  0.2504983345544902 0.3877084156437999 0  0.5 0.8879783056303169 0  0.7005361650220154 0.3333055947145943 0  0.70416808765371 0.6599554817221275 0  0.449930214263529 0.1678187287522426 0  0.2247310981387008 0.7415600637745463 0  0.5155081196221678 0.7563797802146907 0  0.2752689018612993 0.2584399362254537 0  0.05605196690611226 0.8246131191226815 0  0.9439480330938878 0.1
[...]
<PointData  Scalars="Temperature"> 
<DataArray  type="Float64"  Name="Temperature"  format="ascii">2.2132631532584881e+01  2.2484796185825509e+01  2.2479194568564324e+01  2.2474266312127096e+01  2.2459760771279509e+01  2.2435633727575599e+01  2.2401437465738155e+01  2.2355818061215164e+01  2.2299648335325713e+01  2.2232744825805415e+01  2.2154436557610460e+01  2.2065942643875292e+01  2.1969418758482536e+01  2.1866490088309725e+01  2.1758307956470382e+01  2.1648323181040226e+01  2.1538488300294336e+01  2.1430258393873267e+01  2.1328293559518961e+01  2.1231928866041386e+01  2.1144978279996202e+01  2.1068325832949899e+01  2.0999141358328604e+01  2.0941853759476469e+01  2.0894217277219173e+01  2.0859509640854231e+01  2.0832500815363318e+01  2.0817297951234323e+01  2.0811702300811735e+01  2.0628782291732747e+01  2.0623029173004568e+01  2.0605353855988607e+01  2.0575987922061124e+01  2.0538806725697786e+01  2.0493562190235593e+01  2.0443532477869717e+01  2.0393170979430689e+01  2.0342033642636288e+01  2.0292922409577258e+01  2.0247409029557002e+01  2.0206341237874010e+01  2.0170371292536544e+01  2.0139738503357414e+01  2.0114063086294379e+01  2.0092801377586927e+01  2.0075750188765621e+01  2.0062016915044957e+01  2.0051295308361656e+01  2.0042860175255161e+01  2.0036415041156015e+01  2.0031571587078396e+01  2.0028059810202091e+01  2.0025671733932743e+01  2.0024085937180246e+01  2.0023205800811255e+01  2.0022929600948590e+01  2.0021082214415785e+01  2.0019587314775634e+01  2.0021368878899892e+01  2.0025836107920682e+01  2.0032009688368579e+01  2.0039217861473425e+01  2.0047097204198252e+01  2.0054916925321546e+01  2.0062637363894297e+01  2.0069330745988999e+01  2.0074989163497460e+01  2.0078330807362157e+01  2.0079858161991108e+01  2.0078870900675380e+01  2.0075584299159516e+01  2.0071115174200553e+01  2.0064752793955833e+01  2.0057418244786199e+01  2.0049872706059411e+01  2.0042296991880267e+01  2.0034992024031439e+01  2.0028566297220262e+01  2.0022760795327979e+01  2.0017932340842442e+01  2.0013948555085523e+01  2.0010861593386529e+01  2.0008767299583319e+01  2.0007922150960724e+01  2.0003203747985744e+01  2.0003471077273808e+01  2.0003654317431742e+01  2.0004130283482176e+01  2.0004861242093224e+01  2.0005856626878220e+01  2.0007248419264332e+01  2.0009134472286952e+01  2.0011588086932171e+01  2.0014760747244022e+01  2.0018845801646094e+01  2.0024010606252340e+01  2.0030305965568338e+01  2.0037859339969437e+01  2.0046466099103327e+01  2.0056229265044440e+01  2.0066485155742480e+01  2.0077307992505055e+01  2.0087249443102738e+01  2.0096346708594520e+01  2.0103599019228497e+01  2.0108818439791854e+01  2.0110837178072494e+01  2.0110618973192619e+01  2.0107666233125645e+01  2.0102658133270097e+01  2.0097955620610279e+01  2.0095763667977913e+01  2.0122718999622499e+01  2.0128691522550806e+01  2.0142560403941651e+01  2.0162053761402646e+01  2.0185964211485672e+01  2.0214800053903524e+01  2.0248046180252956e+01  2.0285900686227755e+01  2.0327315062891646e+01  2.0372293408334361e+01  2.0418660331471401e+01  2.0465162821886487e+01  2.0509243807695732e+01  2.0548750516732817e+01  2.0581583759166268e+01  2.0605071378515607e+01  2.0618020448932004e+01  2.0620386024833113e+01  2.0611121200792162e+01  2.0593321217132928e+01  2.0566906148905137e+01  2.0533844481206842e+01  2.0496482333493343e+01  2.0457333225256111e+01  2.0419273067933325e+01  2.0388947845063580e+01  2.0374746336469858e+01  2.0376113428806047e+01  2.0870827272761069e+01  2.0871289639903296e+01  2.0874348590494847e+01  2.0879734248226789e+01  2.0887692060371283e+01  2.0898554903632650e+01  2.0912904617578025e+01  2.0932706516142211e+01  2.0957200028227888e+01  2.0985589361010245e+01  2.1022445853731860e+01  2.1065876312143303e+01  2.1118103335206168e+01  2.1177955907219062e+01  2.1246011117112062e+01  2.1322402831702526e+01  2.1406418656755353e+01  2.1497103939733236e+01  2.1592998167106920e+01  2.1691184813705323e+01  2.1788105082604268e+01  2.1879947576315963e+01  2.1963582208138437e+01  2.2034339534990565e+01  2.2087524172821841e+01  2.2121280665167045e+01  2.0106332897260774e+01  2.0111120131046931e+01  2.0118743168755969e+01  2.0129275538291868e+01  2.0143409688561380e+01  2.0161635920480563e+01  2.0184679861648604e+01  2.0213481427499353e+01  2.0248991768481197e+01  2.0291027484451437e+01  2.0341171723183077e+01  2.0399679841672722e+01  2.0466142311544253e+01  2.0540399685079812e+01  2.0620858527653027e+01  2.0705487020115314e+01  2.0791082074162343e+01  2.0875878467664069e+01  2.0952794583091727e+01  2.1023155211275451e+01  2.1080107107993598e+01  2.1123279072036230e+01  2.1147936910525988e+01  2.1158615318811712e+01  2.1148996571993820e+01  2.1125781214101462e+01  2.1086676763852889e+01  2.1036191873205407e+01  2.0976840889164674e+01  2.0909892378221535e+01  2.0840293860897837e+01  2.0766993905678444e+01  2.0694706379304233e+01  2.0623888094842723e+01  2.0556116016462578e+01  2.0492823547226859e+01  2.0433771619703649e+01  2.0380644310133651e+01  2.0332674769008445e+01  2.0290509434122210e+01  2.0253603268405140e+01  2.0221754463313133e+01  2.0194529829947161e+01  2.0172030018669624e+01  2.0153380144777536e+01  2.0138155007024590e+01  2.0126025350234155e+01  2.0116765325298008e+01  2.0110028459414188e+01  2.0105840680998128e+01  2.0103657850215409e+01  2.0103944295878541e+01  2.2370960437206179e+01  2.0021183342523173e+01  2.0005262987344686e+01  2.0588921769870751e+01  2.2454961531762223e+01  2.0021344242384636e+01  2.0003953597133307e+01  2.0454121320468129e+01  2.0193574166283110e+01  2.0648009026409351e+01  2.1498615165080135e+01  2.0120758439683485e+01  2.0056592006283701e+01  2.0711037445298491e+01  2.2242878099531168e+01  2.0916345182043429e+01  2.0006740253243652e+01  2.0220566773924691e+01  2.0020167295423882e+01  2.0091371157939346e+01  2.0748608297536332e+01  2.0419602477550736e+01  2.0028239137984038e+01  2.0748572429467384e+01  2.2156258415829747e+01  2.0309355186679433e+01  2.0735560431853305e+01  2.0494616717509899e+01  2.1235813543825930e+01  2.0035371462997134e+01  2.0141073962616023e+01  2.1871943745242845e+01  2.0012057180144339e+01  2.0068963758718656e+01  2.0072237273073892e+01  2.0702089283343682e+01  2.0113865130679834e+01  2.0861421150633984e+01  2.1349534773445463e+01  2.0150217489826538e+01  2.0174678187468118e+01  2.0088667394738618e+01  2.0857538652026662e+01  2.0648988041919790e+01  2.0212237483318376e+01  2.1490584080577143e+01  2.0632525845101746e+01  2.0028505103999262e+01  2.2297628851856413e+01  2.0007468525320977e+01  2.0692004176897402e+01  2.0059180910761480e+01  2.0151373746629371e+01  2.0237754654949850e+01  2.0829692340560836e+01  2.1678660340798881e+01  2.0624263105449547e+01  2.1260672491432778e+01  2.0137962422316303e+01  2.0714201859434446e+01  2.0103284011959186e+01  2.0084218977047023e+01  2.1232024960830167e+01  2.1005509118496803e+01  2.0108594788934791e+01  2.0123350583912451e+01  2.1691441155932115e+01  2.0578493348519267e+01  2.0492318622235118e+01  2.0048274766432911e+01  2.0077515229195313e+01  2.0295544719347561e+01  2.1014041088302974e+01  2.1168487841229997e+01  2.0101331562118723e+01  2.0135097155261018e+01  2.0304420583258239e+01  2.0041519835264324e+01  2.0102978605327625e+01  2.0093625120932412e+01  2.0718274392695957e+01  2.1120368529487930e+01  2.0386172216256135e+01  2.0417210176722399e+01  2.0548351060080002e+01  2.0019099046668728e+01  2.0018322799480941e+01  2.0250221445938291e+01  2.2031878709771387e+01  2.0806082023540160e+01  2.0039816975769266e+01  2.0689657768950624e+01  2.2009731822141578e+01  2.0809987978173403e+01  2.0023900017484280e+01  2.0055760243731822e+01  2.0009292615460538e+01  2.2157415515227576e+01  2.0025627116122937e+01  2.0005787309398400e+01  2.2385410918723512e+01  2.0550525184067350e+01  2.0086499440960761e+01  2.0039578788482114e+01  2.0565538779331877e+01  2.0074695656070396e+01  2.0114661979264628e+01  2.0525681325996327e+01  2.1837522911171284e+01  2.0040280544617417e+01  2.1125559924779989e+01  2.0850892992473959e+01  2.0644256744385707e+01  2.2206083386538420e+01  2.0012289706576379e+01  2.0896476487582831e+01  2.1526778255046022e+01  2.0152371804463531e+01  2.0028567076812692e+01  2.1345664547539734e+01  2.0740007992019866e+01  2.0204050579793496e+01  2.0241500927853071e+01  2.0306573016232303e+01  2.0816579819028799e+01  2.0116768000712693e+01  2.1039650390539560e+01  2.0077349076790924e+01  2.0192612214427683e+01  2.0310133070034237e+01  2.0426116374315715e+01  2.0165725692022729e+01  2.0030154321646179e+01  2.0361636142689875e+01  2.0653544571328872e+01  2.1338101971913101e+01  2.0487110538542183e+01  2.1851677297852159e+01  2.0057282076562274e+01  2.0169371161429982e+01  2.0772304305702203e+01  2.2242214601860031e+01  2.0077859272062490e+01  2.0025978313075239e+01  2.0717973027587199e+01  2.0173317981099864e+01  2.0666293347288221e+01  2.0020736270552554e+01  2.0090217392095553e+01  2.0008055905064580e+01  2.0840179728615389e+01  2.0130430800807215e+01  2.0153605434286511e+01  2.0725569237955241e+01  2.2312033969159081e+01  2.0067391849241361e+01  2.0092942481613072e+01  2.0063445988830388e+01  2.0975996233892555e+01  2.1411755313436583e+01  2.0744838775529050e+01  2.1219290394477422e+01  2.0833312809943902e+01  2.0791649021434729e+01  2.0631286812495677e+01  2.0091249946084137e+01  2.0130940426931613e+01  2.0123691427405515e+01  2.0121033917581482e+01  2.0160286562370267e+01  2.0005999463881039e+01  2.0827898251043717e+01  2.0004604158799609e+01  2.0019526080884301e+01  2.2172203691416236e+01  2.0021151804719995e+01  2.2477265453310551e+01  2.0021376768096200e+01  2.0023769164382074e+01  2.2418999112801291e+01  2.0003435673661155e+01  2.0401061096471395e+01  2.0007499235694375e+01  2.0518116365989702e+01  2.0486572456642712e+01  2.1218845425503179e+01  2.0885962419289061e+01  2.0732647060935044e+01  2.1348081149815378e+01  2.0194939341800943e+01  2.0013129675553792e+01  2.0553079092380962e+01  2.1684034197326916e+01  2.0045118642744676e+01  2.0054446058758955e+01  2.0261416978161922e+01  2.0007842278285722e+01  2.0175029719013811e+01  2.0584002954736004e+01  2.0802007092693643e+01  2.1478146842130226e+01  2.1995189662422323e+01  2.0360235440395453e+01  2.0589167559710063e+01  2.0119730184299829e+01  2.0103647110919677e+01  2.0203344612168003e+01  2.0095053736304735e+01  2.0110121532798377e+01  2.0004684380788241e+01  2.2430761364572881e+01  2.2113109166041447e+01  2.0036520707528073e+01  2.0631333607833643e+01  2.1640012784214122e+01  2.0052606107636862e+01  2.0495725743648979e+01  2.0085128615266353e+01  2.0031168422791602e+01  2.0187435297049284e+01  2.1043173452462124e+01  2.0112760559389478e+01  2.0353732675203439e+01  2.2463683323766404e+01  2.0022803055407241e+01  2.0003898023744622e+01  2.0426404646795564e+01  2.0352262912870220e+01  2.0094180031015121e+01  2.0798816205700597e+01  2.0576564810647717e+01  2.0625183505090508e+01  2.0031694585711090e+01  2.0022830652292505e+01  2.0421891150937000e+01  2.2281073655226901e+01  2.2231174570581619e+01  2.2335335456872460e+01  2.0976872769832266e+01  2.0884969742744161e+01  2.2084560506561200e+01  2.0229909892431635e+01  2.0864697617452098e+01  2.0641249480101543e+01  2.0051912533515171e+01  2.0201329220897655e+01  2.0124131948626449e+01  2.1154467948956150e+01  2.0137066496064755e+01  2.0006342497022846e+01  2.0103293621122585e+01  2.0071603464913427e+01  2.0414985163192028e+01  2.0106433869069424e+01  2.0062717359794767e+01  2.0766149872879780e+01  2.0669272324694955e+01  2.0087958671855564e+01  2.0115815839893767e+01  2.1133228666124502e+01  2.1258752279946425e+01  2.0183896089687689e+01  2.0021705843004852e+01  2.0129408847182859e+01  2.0274436129609295e+01  2.1367734030676065e+01  2.0463837369949932e+01  2.1758490692815808e+01  2.0565237808039353e+01  2.0591168160004887e+01  2.0712547717648661e+01  2.1475302415896845e+01  2.1554868179147931e+01  2.0663355229312689e+01  2.0137770641067416e+01  2.0119915526909992e+01  2.1376456114409280e+01  2.0793375917986996e+01  2.1184493720495823e+01  2.1731507827841867e+01  2.0596273017515234e+01  2.0904951836878013e+01  2.0163095099902581e+01  2.0098312863791485e+01  2.0079552561654140e+01  2.1032850303414733e+01  2.1099012411060322e+01  2.1937003925786712e+01  2.0073672440279008e+01  2.0061857739782816e+01  2.0059620283902181e+01  2.0898501932326404e+01  2.0084586601204652e+01  2.0205220028551089e+01  2.0931072674838216e+01  2.0228911194623308e+01  2.0267556375404062e+01  2.0148224837330254e+01  2.0671014807690174e+01  2.0673782548818309e+01  2.0168128048576211e+01  2.0244792304499605e+01  2.0009372262010388e+01  2.2111149030438952e+01  2.0071404647086545e+01  2.0485373913980762e+01  2.0021131599584589e+01  2.0016162243253515e+01  2.0096676977135374e+01  2.0072105617958297e+01  2.0065913038190402e+01  2.0647564973067205e+01  2.1021888509741235e+01  2.1118412717415332e+01  2.0098449379454710e+01  2.0116176237398054e+01  2.0385686630388957e+01  2.0426799174395580e+01  2.0648125346616258e+01  2.0354975424337376e+01  2.0044583514473047e+01  2.0080434798257617e+01  2.0032717812449722e+01  2.0676753694082468e+01  2.0502941475834010e+01  2.0003327727824516e+01  2.0021952779095230e+01  2.2482455367142979e+01  2.0375329055654603e+01  2.0742488833444082e+01  2.0363776604574923e+01  2.1157700849333366e+01  2.0268703624987474e+01  2.0093668199566327e+01  2.0049099676248634e+01  2.0638620574713730e+01  2.0793426346590493e+01  2.1297052315081345e+01  2.0096973937925657e+01  2.0023750457278382e+01  2.0020779399772632e+01  2.0015815557726459e+01  2.0024550425602854e+01  2.0157919876493203e+01  2.1269767436922933e+01  2.0959330583718526e+01  2.0112544521329376e+01  2.0099533015782214e+01  2.0136923535634953e+01  2.0122172325563696e+01  2.0070631807541769e+01  2.1052010117853332e+01  2.0940250747727664e+01  2.1916214802140537e+01  2.1231523505742686e+01  2.0356104635380085e+01  2.2077742465618471e+01  2.0775019097882772e+01  2.0441079474640727e+01  2.0109549430500611e+01  2.2211185777349520e+01  2.0924104428503313e+01  2.0044586465522375e+01  2.0051759242900278e+01  2.0009347456435265e+01  2.0686841547581658e+01  2.1795935767507100e+01  2.0534155068465207e+01  2.0700333056887068e+01  2.0749870878256026e+01  2.0733014916610038e+01  2.1189983959347682e+01  2.0108511006522118e+01  2.2337236169529366e+01  2.0014529578352924e+01  2.1324061110689875e+01  2.0287866341311208e+01  2.0705631340480323e+01  2.0022550565193139e+01  2.0059429188433700e+01  2.0222986879599528e+01  2.1134534228616062e+01  2.0112986205562130e+01  2.1630960007160247e+01  2.0087960747194259e+01  2.0007510964498302e+01  2.0857256582165775e+01  2.0264744097073599e+01  2.1164205101039901e+01  2.0042999523303290e+01  2.0709117377315394e+01  2.0022299933124092e+01  2.0393007961511074e+01  2.2476936626981662e+01  2.0003517980795962e+01  2.0604652692797011e+01  2.0109430986830759e+01  2.0016650259629195e+01  2.0064356970419219e+01  2.0804748937611325e+01  2.0229235345673654e+01  2.0029507486223203e+01  2.0144686230521952e+01  2.2131367892906383e+01  2.0875272863682824e+01  2.0784583522791113e+01  2.0663053216033383e+01  2.0085192377521860e+01  2.0404268018353207e+01  2.0472288067431460e+01  2.0853794029234834e+01  2.0023644752725247e+01  2.0760841209945244e+01  2.0082312007273284e+01  2.0572811775226981e+01  2.1573464720964246e+01  2.0813626096899196e+01  2.0036009019986512e+01  2.1583000516204798e+01  2.0235235496133996e+01  2.0033396863700332e+01  2.0049589459152699e+01  2.0049372372236206e+01  2.0143237605002181e+01  2.0146872248391482e+01  2.0009818662638782e+01  2.0619731355906403e+01  2.1791125547486104e+01  2.0496568791199088e+01  2.0174345440289066e+01  2.0100718297234163e+01  2.0817757970760063e+01  2.0679665981239783e+01  2.0006693740868808e+01  2.1441054114068624e+01  2.0676339815206710e+01  2.0658089688053895e+01  2.0118025527823843e+01  2.0780847986538326e+01  2.0554822689916882e+01  2.1914842811115442e+01  2.0037966670208498e+01  2.0615755407921586e+01  2.0786256596810681e+01  2.0028484414063168e+01  2.0019897128817242e+01  2.0021966240080875e+01  2.0010358983996667e+01  2.2291618917822039e+01  2.0318073694790801e+01  2.1504321254483674e+01  2.0132113826170023e+01  2.0618958877432288e+01  2.0479708339760410e+01  2.0308301020393493e+01  2.0748943587533422e+01  2.1265242199530480e+01  2.1608169355453697e+01  2.0044671665512915e+01  2.0512935848236694e+01  2.0028252906945415e+01  2.0027068054812705e+01  2.0842425303707682e+01  2.0297778365059621e+01  2.2009797807309159e+01  2.0035906113700261e+01  2.1947551539403516e+01  2.2028482869814884e+01  2.0010691515581648e+01  2.0008356087843818e+01  2.2145850050592514e+01  2.2188922851714942e+01  2.1080376062240301e+01  2.0272410200810551e+01  2.0130973507127031e+01  2.0096301776488026e+01  2.0288093501030016e+01  2.0232555332474725e+01  2.0127227787182445e+01  2.0006153879349622e+01  2.0133844691180101e+01  2.0343503234220861e+01  2.1258133093884915e+01  2.1188877160053728e+01  2.0082003528490006e+01  2.0100727421337634e+01  2.0113717876500321e+01  2.0273284532887040e+01  2.0075509707662199e+01  2.1189520492509793e+01  2.0852484054016159e+01  2.0671607782236258e+01  2.0947424289808353e+01  2.0861145258504646e+01  2.1443325624856055e+01  2.0004923284439620e+01  2.2396429985990832e+01  2.2372519668876457e+01  2.2365051060297549e+01  2.0007068845008668e+01  2.0005615491049049e+01  2.0025760436529747e+01  2.0610240560188178e+01  2.0038467393422145e+01  2.0951303097011181e+01  2.0055605882289544e+01  2.0026972999117305e+01  2.0022795970335800e+01  2.0594363026926366e+01  2.0552694376018753e+01  2.0577413681851564e+01  2.0109402771387622e+01  2.2404619444480733e+01  2.0524499524973834e+01  2.0022870785670058e+01  2.0013254983591288e+01  2.0533956084595200e+01  2.0183254683938003e+01  2.0471200369814429e+01  2.1389036460239669e+01  2.0805042302293081e+01  2.0019486398853470e+01  2.0857764423005136e+01  2.0100633265488312e+01  2.0043384825243546e+01  2.0047325338803045e+01  2.0031854574510632e+01  2.1748310257704482e+01  2.0176616513174970e+01  2.2181506188604480e+01  2.0035208148774775e+01  2.0620367263590083e+01  2.0046235383713007e+01  2.0922401693559380e+01  2.0547267760390348e+01  2.0005395489691622e+01  2.0210657771961248e+01  2.2117361017129600e+01  2.0051572381561101e+01  2.0021008509095886e+01  2.0109666059500810e+01  2.1240265685269961e+01  2.0532889408536438e+01  2.0081239423100612e+01  2.0221824296808805e+01  2.0159034418737580e+01  2.0148028834255474e+01  2.1767074329883734e+01  2.1083030392087306e+01  2.0446557572325588e+01  2.0168306296518395e+01  2.0053964043736261e+01  2.0108306161397408e+01  2.0165305798356968e+01  2.0157341153279170e+01  2.0624568381677612e+01  2.0885761248856141e+01  2.0512214831469791e+01  2.0020859635568605e+01  2.0843416645189571e+01  2.0037821859338596e+01  2.1433773124552506e+01  2.0742055230282201e+01  2.0781757975315706e+01  2.0747883504397446e+01  2.0857620949588583e+01  2.0082476079191789e+01  2.0343015080152970e+01  2.0084576100313878e+01  2.0079981835990363e+01  2.0067283670538661e+01  2.0204098209544817e+01  2.0010989046589387e+01  2.0033851377770414e+01  2.0242949705548543e+01  2.2183378598515596e+01  2.2256265454968133e+01  2.1934987463797416e+01  2.0195552764173296e+01  2.0567976445589007e+01  2.0519056913192671e+01  2.0076384238563659e+01  2.0103527336339006e+01  2.1808244375489018e+01  2.1070762865754627e+01  2.0012875958995561e+01  2.0753271572904129e+01  2.0864116563824652e+01  2.0057888846433588e+01  2.1719819178187077e+01  2.0130065062194284e+01  2.0963143429027404e+01  2.0104723067342984e+01  2.1050677578162357e+01  2.0299298798752623e+01  2.0317004272598567e+01  2.0124763392536327e+01  2.1367176620506921e+01  2.0179228340927331e+01  2.0073384462619558e+01  2.0142531363355513e+01  2.0132544119163953e+01  2.1190715211997841e+01  2.0165392813181107e+01  2.0212753013307491e+01  2.1049587588056664e+01  2.0257183929918391e+01  2.0088780427303842e+01  2.0822733352700592e+01  2.0004932588506438e+01  2.2404395044899129e+01  2.089