<?xml version="1.0"?>
<VTKFile type="UnstructuredGrid"  version="0.1"  >
<UnstructuredGrid>
<Piece  NumberOfPoints="2331" NumberOfCells="4248">
<Points>
<DataArray  type="Float64"  NumberOfComponents="3"  format="ascii">0 0.3 0  0 0 0  0.04999999999999999 0 0  0.0514582251803892 0.02410733605106462 0  0.0558116365147896 0.04786313285751154 0  0.06299675146291706 0.07092097740850717 0  0.07290879486935808 0.09294463440875382 0  0.08540322682126872 0.1136129493462312 0  0.1002978503657798 0.132624531648159 0  0.117375468351841 0.1497021496342203 0  0.1363870506537689 0.1645967731787313 0  0.1570553655912463 0.177091205130642 0  0.1790790225914929 0.187003248537083 0  0.2021368671424885 0.1941883634852104 0  0.2258926639489354 0.1985417748196108 0  0.25 0.2 0  0.2741073360510646 0.1985417748196108 0  0.2978631328575116 0.1941883634852104 0  0.3209209774085071 0.187003248537083 0  0.3429446344087537 0.177091205130642 0  0.3636129493462312 0.1645967731787313 0  0.3826245316481591 0.1497021496342202 0  0.3997021496342202 0.132624531648159 0  0.4145967731787313 0.1136129493462312 0  0.427091205130642 0.09294463440875371 0  0.4370032485370829 0.07092097740850713 0  0.4441883634852104 0.04786313285751155 0  0.4485417748196108 0.02410733605106461 0  0.45 0 0  0.55 0 0  0.5514582251803892 0.02410733605106462 0  0.5558116365147896 0.04786313285751154 0  0.5629967514629171 0.07092097740850717 0  0.5729087948693581 0.09294463440875382 0  0.5854032268212688 0.1136129493462312 0  0.6002978503657798 0.132624531648159 0  0.617375468351841 0.1497021496342203 0  0.6363870506537689 0.1645967731787313 0  0.6570553655912463 0.177091205130642 0  0.6790790225914929 0.187003248537083 0  0.7021368671424885 0.1941883634852104 0  0.7258926639489354 0.1985417748196108 0  0.75 0.2 0  0.7741073360510646 0.1985417748196108 0  0.7978631328575116 0.1941883634852104 0  0.8209209774085071 0.187003248537083 0  0.8429446344087537 0.177091205130642 0  0.8636129493462312 0.1645967731787313 0  0.8826245316481591 0.1497021496342202 0  0.8997021496342202 0.132624531648159 0  0.9145967731787312 0.1136129493462312 0  0.927091205130642 0.09294463440875371 0  0.9370032485370829 0.07092097740850713 0  0.9441883634852104 0.04786313285751155 0  0.9485417748196108 0.02410733605106461 0  0.95 0 0  1 0 0  1 0.3 0  0.9758926639489353 0.3014582251803892 0  0.9521368671424885 0.3058116365147896 0  0.9290790225914928 0.3129967514629171 0  0.9070553655912461 0.3229087948693581 0  0.8863870506537688 0.3354032268212687 0  0.867375468351841 0.3502978503657798 0  0.8502978503657798 0.367375468351841 0  0.8354032268212687 0.3863870506537689 0  0.822908794869358 0.4070553655912464 0  0.8129967514629171 0.4290790225914929 0  0.8058116365147896 0.4521368671424885 0  0.8014582251803892 0.4758926639489354 0  0.8 0.4999999999999999 0  0.8014582251803892 0.5241073360510646 0  0.8058116365147896 0.5478631328575115 0  0.8129967514629171 0.5709209774085071 0  0.8229087948693581 0.5929446344087538 0  0.8354032268212688 0.6136129493462312 0  0.8502978503657798 0.632624531648159 0  0.867375468351841 0.6497021496342202 0  0.8863870506537689 0.6645967731787313 0  0.9070553655912463 0.677091205130642 0  0.9290790225914929 0.6870032485370829 0  0.9521368671424885 0.6941883634852104 0  0.9758926639489354 0.6985417748196108 0  1 0.7 0  1 1 0  0.95 1 0  0.9485417748196108 0.9758926639489353 0  0.9441883634852104 0.9521368671424885 0  0.9370032485370829 0.9290790225914928 0  0.927091205130642 0.9070553655912463 0  0.9145967731787312 0.8863870506537688 0  0.8997021496342201 0.8673754683518409 0  0.882624531648159 0.8502978503657798 0  0.863612949346231 0.8354032268212686 0  0.8429446344087537 0.822908794869358 0  0.8209209774085071 0.8129967514629171 0  0.7978631328575114 0.8058116365147896 0  0.7741073360510646 0.8014582251803892 0  0.75 0.8 0  0.7258926639489353 0.8014582251803892 0  0.7021368671424885 0.8058116365147896 0  0.6790790225914928 0.8129967514629171 0  0.6570553655912461 0.8229087948693581 0  0.6363870506537688 0.8354032268212688 0  0.617375468351841 0.8502978503657798 0  0.6002978503657798 0.867375468351841 0  0.5854032268212687 0.8863870506537689 0  0.572908794869358 0.9070553655912463 0  0.5629967514629171 0.9290790225914929 0  0.5558116365147896 0.9521368671424885 0  0.5514582251803892 0.9758926639489355 0  0.55 0.9999999999999999 0  0.45 0.9999999999999999 0  0.4485417748196108 0.9758926639489353 0  0.4441883634852104 0.9521368671424885 0  0.4370032485370829 0.9290790225914928 0  0.427091205130642 0.9070553655912463 0  0.4145967731787313 0.8863870506537688 0  0.3997021496342201 0.8673754683518409 0  0.382624531648159 0.8502978503657798 0  0.363612949346231 0.8354032268212686 0  0.3429446344087536 0.822908794869358 0  0.3209209774085071 0.8129967514629171 0  0.2978631328575115 0.8058116365147896 0  0.2741073360510646 0.8014582251803892 0  0.25 0.8 0  0.2258926639489353 0.8014582251803892 0  0.2021368671424885 0.8058116365147896 0  0.1790790225914928 0.8129967514629171 0  0.1570553655912462 0.8229087948693581 0  0.1363870506537688 0.8354032268212688 0  0.117375468351841 0.8502978503657798 0  0.1002978503657797 0.867375468351841 0  0.08540322682126869 0.8863870506537689 0  0.07290879486935797 0.9070553655912463 0  0.06299675146291703 0.9290790225914929 0  0.05581163651478957 0.9521368671424885 0  0.0514582251803892 0.9758926639489355 0  0.04999999999999999 0.9999999999999999 0  0 1 0  -0 0.7000000000000001 0  0.0241073360510646 0.6985417748196108 0  0.04786313285751161 0.6941883634852104 0  0.07092097740850711 0.6870032485370829 0  0.09294463440875372 0.677091205130642 0  0.1136129493462312 0.6645967731787312 0  0.1326245316481591 0.6497021496342202 0  0.1497021496342202 0.632624531648159 0  0.1645967731787313 0.6136129493462312 0  0.177091205130642 0.5929446344087537 0  0.187003248537083 0.5709209774085071 0  0.1941883634852104 0.5478631328575115 0  0.1985417748196108 0.5241073360510646 0  0.2 0.5 0  0.1985417748196108 0.4758926639489353 0  0.1941883634852104 0.4521368671424885 0  0.1870032485370829 0.4290790225914928 0  0.177091205130642 0.4070553655912463 0  0.1645967731787313 0.3863870506537688 0  0.1497021496342202 0.3673754683518409 0  0.132624531648159 0.3502978503657798 0  0.113612949346231 0.3354032268212686 0  0.09294463440875361 0.322908794869358 0  0.07092097740850711 0.3129967514629171 0  0.04786313285751148 0.3058116365147896 0  0.02410733605106464 0.3014582251803892 0  0.6985417748196108 0.5241073360510646 0  0.7 0.5 0  0.6985417748196108 0.4758926639489353 0  0.6941883634852104 0.4521368671424885 0  0.6870032485370829 0.4290790225914928 0  0.677091205130642 0.4070553655912463 0  0.6645967731787312 0.3863870506537688 0  0.6497021496342201 0.3673754683518409 0  0.632624531648159 0.3502978503657798 0  0.613612949346231 0.3354032268212686 0  0.5929446344087537 0.322908794869358 0  0.5709209774085071 0.3129967514629171 0  0.5478631328575114 0.3058116365147896 0  0.5241073360510646 0.3014582251803892 0  0.4999999999999999 0.3 0  0.4758926639489353 0.3014582251803892 0  0.4521368671424885 0.3058116365147896 0  0.4290790225914928 0.3129967514629171 0  0.4070553655912462 0.3229087948693581 0  0.3863870506537688 0.3354032268212687 0  0.367375468351841 0.3502978503657798 0  0.3502978503657798 0.367375468351841 0  0.3354032268212687 0.3863870506537689 0  0.322908794869358 0.4070553655912464 0  0.3129967514629171 0.4290790225914929 0  0.3058116365147896 0.4521368671424885 0  0.3014582251803892 0.4758926639489354 0  0.3 0.4999999999999999 0  0.3014582251803892 0.5241073360510646 0  0.3058116365147896 0.5478631328575115 0  0.3129967514629171 0.5709209774085071 0  0.3229087948693581 0.5929446344087538 0  0.3354032268212687 0.6136129493462312 0  0.3502978503657798 0.632624531648159 0  0.367375468351841 0.6497021496342202 0  0.3863870506537689 0.6645967731787313 0  0.4070553655912463 0.677091205130642 0  0.4290790225914929 0.6870032485370829 0  0.4521368671424885 0.6941883634852104 0  0.4758926639489354 0.6985417748196108 0  0.4999999999999999 0.7 0  0.5241073360510646 0.6985417748196108 0  0.5478631328575116 0.6941883634852104 0  0.5709209774085071 0.6870032485370829 0  0.5929446344087537 0.677091205130642 0  0.6136129493462312 0.6645967731787312 0  0.6326245316481591 0.6497021496342202 0  0.6497021496342202 0.632624531648159 0  0.6645967731787312 0.6136129493462312 0  0.677091205130642 0.5929446344087537 0  0.6870032485370829 0.5709209774085071 0  0.6941883634852104 0.5478631328575115 0  0 0.15 0  1 0.15 0  1 0.85 0  0 0.8500000000000001 0  0 0.075 0  1 0.075 0  1 0.925 0  0 0.925 0  0.5 0.8127595604293815 0  0.5069440078039168 0.190422209288238 0  0.25 0.3127595604293815 0  0.756944007803917 0.3095777907117619 0  0.756944007803917 0.6904222092882382 0  0.25 0.6872404395706185 0  0 0.225 0  0.4255768646051012 0.2241073097134061 0  1 0.7749999999999999 0  0.6773391559270888 0.2766774022734219 0  1 0.225 0  0.6755768646051011 0.7241073097134062 0  0 0.7750000000000001 0  0.5818971135297744 0.2287925518358889 0  0.8318971135297746 0.728792551835889 0  0.1659156081861886 0.7301636995921477 0  0.08376842746533225 0.2299656297760495 0  0.4236002201977974 0.7746535834185855 0  0.0840843918138115 0.7698363004078523 0  0.3340843918138113 0.7301636995921477 0  0.3340843918138114 0.2698363004078523 0  0.9159156081861887 0.2301636995921477 0  0.5840843918138116 0.7698363004078522 0  0.1659156081861887 0.2698363004078523 0  0.9162315725346678 0.7700343702239506 0  0.8340843918138114 0.2698363004078523 0  0.75 0.6146645247768686 0  0.5 0.1125158665330878 0  0.75 0.3874841334669124 0  0.2504983345544904 0.6122915843562002 0  0.2504983345544902 0.3877084156437999 0  0.5 0.8879783056303169 0  0.7005361650220154 0.3333055947145943 0  0.70416808765371 0.6599554817221275 0  0.449930214263529 0.1678187287522426 0  0.2247310981387008 0.7415600637745463 0  0.5155081196221678 0.7563797802146907 0  0.2752689018612993 0.2584399362254537 0  0.05605196690611226 0.8246131191226815 0  0.9439480330938878 0.1
[...]
<PointData  Scalars="Temperature"> 
<DataArray  type="Float64"  Name="Temperature"  format="ascii">2.4447180690213678e+01  2.5145936918734257e+01  2.5139817333922981e+01  2.5129002890850202e+01  2.5097674332910469e+01  2.5046286968290019e+01  2.4973699639643826e+01  2.4877760602014792e+01  2.4759895682815376e+01  2.4619519620824178e+01  2.4454639296823625e+01  2.4267790683727220e+01  2.4063719088384477e+01  2.3845720618739861e+01  2.3616473154785243e+01  2.3383281539635473e+01  2.3150323671128582e+01  2.2921014938488341e+01  2.2704923554446555e+01  2.2500626122550543e+01  2.2315970390200295e+01  2.2152538469770533e+01  2.2006625377767818e+01  2.1885956119989245e+01  2.1787216254136645e+01  2.1715373552510446e+01  2.1662249570026706e+01  2.1632876578096813e+01  2.1622628052182410e+01  2.1365403699307148e+01  2.1353697193563050e+01  2.1318100127935356e+01  2.1257643954541024e+01  2.1178212898551521e+01  2.1079861062061077e+01  2.0970224561182885e+01  2.0858312974202409e+01  2.0745008716871567e+01  2.0636127066712689e+01  2.0535283883257176e+01  2.0444501617029353e+01  2.0365199874909884e+01  2.0297761631904418e+01  2.0241365968002931e+01  2.0194862251492953e+01  2.0157705519841940e+01  2.0127950494030276e+01  2.0104820553794141e+01  2.0086996211216292e+01  2.0073616869949031e+01  2.0063863047557426e+01  2.0056998358341701e+01  2.0052472487760280e+01  2.0049561722494129e+01  2.0047940982457305e+01  2.0047418562986682e+01  2.0045511934191158e+01  2.0047992653048645e+01  2.0051365415742264e+01  2.0060399819995766e+01  2.0073684884587298e+01  2.0089812180874066e+01  2.0107740904180702e+01  2.0125764402115983e+01  2.0143402338636907e+01  2.0158621677196766e+01  2.0170959707154232e+01  2.0177871410447430e+01  2.0180182621284420e+01  2.0177049973033881e+01  2.0169319881585150e+01  2.0158974192076204e+01  2.0145251806140042e+01  2.0129392679628999e+01  2.0112759727523571e+01  2.0095735162485450e+01  2.0079195862506747e+01  2.0064480765551099e+01  2.0051241666233768e+01  2.0040250116768949e+01  2.0031329698260482e+01  2.0024654024445439e+01  2.0020372701741003e+01  2.0018761646150352e+01  2.0007368759819496e+01  2.0007653300989585e+01  2.0007990823348877e+01  2.0008909912890417e+01  2.0010372121497085e+01  2.0012440979226550e+01  2.0015375902669248e+01  2.0019412200228427e+01  2.0024774670037708e+01  2.0031810869933953e+01  2.0040956593975348e+01  2.0052588457285001e+01  2.0066797008941389e+01  2.0083883016444808e+01  2.0103354583154459e+01  2.0125396347570089e+01  2.0148631597231681e+01  2.0172872486866432e+01  2.0195437658974434e+01  2.0215979629117456e+01  2.0232292080290190e+01  2.0243936152370583e+01  2.0248599643026242e+01  2.0248100843821458e+01  2.0241996846998031e+01  2.0232335480445830e+01  2.0223891841725369e+01  2.0220265128089956e+01  2.0260282323772977e+01  2.0270685874119664e+01  2.0296680913094750e+01  2.0335421455520038e+01  2.0385346140486462e+01  2.0446962381974998e+01  2.0518862434811833e+01  2.0601236666111372e+01  2.0691616233892745e+01  2.0790019343766655e+01  2.0891670853943545e+01  2.0993361753531726e+01  2.1090081483447232e+01  2.1176244513972225e+01  2.1247521394823014e+01  2.1298127621206731e+01  2.1326006153589514e+01  2.1330279732926588e+01  2.1309614230473006e+01  2.1269744186927571e+01  2.1211522813316162e+01  2.1139184693938919e+01  2.1058997549305630e+01  2.0977677994469026e+01  2.0902923132982657e+01  2.0847942322417463e+01  2.0824030550719097e+01  2.0825250290606270e+01  2.1747561323198401e+01  2.1748865008238667e+01  2.1755135709100966e+01  2.1766034365360230e+01  2.1782227071891466e+01  2.1804363922775462e+01  2.1833922146017137e+01  2.1874318778041296e+01  2.1925293444776518e+01  2.1986407140865698e+01  2.2065414067280603e+01  2.2160071391410135e+01  2.2273289182805375e+01  2.2402273327211478e+01  2.2547357389274513e+01  2.2708312284716776e+01  2.2884973140632439e+01  2.3076802017727413e+01  2.3281502982386495e+01  2.3492106835391535e+01  2.3701148976615290e+01  2.3899537423298298e+01  2.4080287546984039e+01  2.4233754902742305e+01  2.4348946987957955e+01  2.4422160892014716e+01  2.0209168208065535e+01  2.0219530959880199e+01  2.0235403113257124e+01  2.0257263488822396e+01  2.0286512018424492e+01  2.0324690862457299e+01  2.0373602030643454e+01  2.0435020844120068e+01  2.0511399810931717e+01  2.0602307158741841e+01  2.0710729508275186e+01  2.0837635690095585e+01  2.0982064818739762e+01  2.1143503246860224e+01  2.1318453697807222e+01  2.1502699461552982e+01  2.1688981430356275e+01  2.1872989016563412e+01  2.2041187389490194e+01  2.2193903537487945e+01  2.2317311183610183e+01  2.2410127373692539e+01  2.2463309952668272e+01  2.2482900994973317e+01  2.2459390416087203e+01  2.2403796104387339e+01  2.2315149198352231e+01  2.2202437992552767e+01  2.2072314693958287e+01  2.1928547803613515e+01  2.1779009209254529e+01  2.1621826994043342e+01  2.1466306244664004e+01  2.1313825290203003e+01  2.1167668438954838e+01  2.1031382943397016e+01  2.0904239823439866e+01  2.0790113483064225e+01  2.0687334428133873e+01  2.0597331767757488e+01  2.0518579968561969e+01  2.0450920743032036e+01  2.0393213704385268e+01  2.0345691920915073e+01  2.0306287854769945e+01  2.0274226293883260e+01  2.0248794779277034e+01  2.0229404567338324e+01  2.0215406425269126e+01  2.0206738137297076e+01  2.0202652338812822e+01  2.0203651358095865e+01  2.4893635481276707e+01  2.0049016886323837e+01  2.0012470557689902e+01  2.1230087540007837e+01  2.5077371833347055e+01  2.0047087878235061e+01  2.0009070534734160e+01  2.0964188021012408e+01  2.0407938105822861e+01  2.1358556901113189e+01  2.3106306158315217e+01  2.0258294814296974e+01  2.0121326379151871e+01  2.1478112934666541e+01  2.4636794639416195e+01  2.1906033023364259e+01  2.0016148342250666e+01  2.0467157359241206e+01  2.0048305730800511e+01  2.0192816902475212e+01  2.1540301758667503e+01  2.0888427773219860e+01  2.0061753240850095e+01  2.1551206906506028e+01  2.4457020170658378e+01  2.0648113623472380e+01  2.1522447217953104e+01  2.1036641564641322e+01  2.2569599522600921e+01  2.0077175122698360e+01  2.0297724760483860e+01  2.3868670841616410e+01  2.0026661400204876e+01  2.0148960536610957e+01  2.0151907204423292e+01  2.1462450212899615e+01  2.0241450811967731e+01  2.1783167349171638e+01  2.2809325495343092e+01  2.0319041037239440e+01  2.0365525056510545e+01  2.0182424927239634e+01  2.1764391390493891e+01  2.1361916849099178e+01  2.0441316276098306e+01  2.3077522187073981e+01  2.1323947670558713e+01  2.0061812761559832e+01  2.4745023961974304e+01  2.0016967999446990e+01  2.1456675748828250e+01  2.0128316407754902e+01  2.0323221159803886e+01  2.0498904915624049e+01  2.1700863056606398e+01  2.3470518414400857e+01  2.1305643020053118e+01  2.2643939014474061e+01  2.0296532814422893e+01  2.1484715514848670e+01  2.0217419706556740e+01  2.0175821190594505e+01  2.2567420453534947e+01  2.2083949062545834e+01  2.0239234405596832e+01  2.0265386625144227e+01  2.3493307904518428e+01  2.1213771942381850e+01  2.1049365334920218e+01  2.0105432539459528e+01  2.0169905956691757e+01  2.0630497309812014e+01  2.2128700555237074e+01  2.2406440830345034e+01  2.0217906592386360e+01  2.0278781864886618e+01  2.0639701370371931e+01  2.0090292559776046e+01  2.0219672771449947e+01  2.0195985726590955e+01  2.1492087676897864e+01  2.2330001318177278e+01  2.0812413720722596e+01  2.0872101878422544e+01  2.1155338957632331e+01  2.0041719621939905e+01  2.0040488970007548e+01  2.0523381981943022e+01  2.4210218536944478e+01  2.1643926568377712e+01  2.0088545020923942e+01  2.1446420671383283e+01  2.4150752297313581e+01  2.1656859233561210e+01  2.0055440864011111e+01  2.0118378969206745e+01  2.0021243791803354e+01  2.4473662874492359e+01  2.0055097535559050e+01  2.0012887492954373e+01  2.4930181205859665e+01  2.1159904420550994e+01  2.0190100910611203e+01  2.0086203900536756e+01  2.1207772078386736e+01  2.0158139873381000e+01  2.0249797633271125e+01  2.1100615912605498e+01  2.3802821241736307e+01  2.0084449705416120e+01  2.2378595228964468e+01  2.1731760039130958e+01  2.1358059920226381e+01  2.4558780939071429e+01  2.0026707671684584e+01  2.1830391604130586e+01  2.3153882086544122e+01  2.0325130478976643e+01  2.0063297527100300e+01  2.2809131443729559e+01  2.1541484097729107e+01  2.0436671796626285e+01  2.0503494013764726e+01  2.0644801947977353e+01  2.1723480717922246e+01  2.0237429561310687e+01  2.2126009852123627e+01  2.0168558515467844e+01  2.0403018482238387e+01  2.0644921991126555e+01  2.0897279454236465e+01  2.0351884031850197e+01  2.0066015341769919e+01  2.0776346466920391e+01  2.1379850813485159e+01  2.2750089355672014e+01  2.1029412668813794e+01  2.3820658980382639e+01  2.0127388536944547e+01  2.0347928978754688e+01  2.1610753823511406e+01  2.4632321769090041e+01  2.0164966083737301e+01  2.0058485749650810e+01  2.1485490999848228e+01  2.0365452489444991e+01  2.1383004620735935e+01  2.0048918862114970e+01  2.0194336654957475e+01  2.0017563532906145e+01  2.1711080401892016e+01  2.0276365497439869e+01  2.0316565373020712e+01  2.1508765294899543e+01  2.4771699933789545e+01  2.0145730740507542e+01  2.0186846176848587e+01  2.0134954275519220e+01  2.1997743936232123e+01  2.2912698954085947e+01  2.1563694928952351e+01  2.2581913313853697e+01  2.1692283239003959e+01  2.1611720746329777e+01  2.1344898010646173e+01  2.0199531821477276e+01  2.0268423522489645e+01  2.0270786951514413e+01  2.0264220118152274e+01  2.0335210867676139e+01  2.0014337694871614e+01  2.1679915598044655e+01  2.0010717141569483e+01  2.0047545611691898e+01  2.4510589524158380e+01  2.0045939091639120e+01  2.5128427898092184e+01  2.0048297144190581e+01  2.0050828553438127e+01  2.4997220458000026e+01  2.0007852778417611e+01  2.0866827583252082e+01  2.0017867767889932e+01  2.1089128238964900e+01  2.1030951290351560e+01  2.2570687743974158e+01  2.1853631770125940e+01  2.1520031262421938e+01  2.2800767537907380e+01  2.0410296434534288e+01  2.0029329080516845e+01  2.1173403742172798e+01  2.3468018721995371e+01  2.0099098493651585e+01  2.0119799009991301e+01  2.0540494049363893e+01  2.0018117797143891e+01  2.0365117767841070e+01  2.1233909172132336e+01  2.1657593734828701e+01  2.3064275212458778e+01  2.4124806531144337e+01  2.0760697257620059e+01  2.1243561186150313e+01  2.0256093030787721e+01  2.0223231461326836e+01  2.0417362441599625e+01  2.0196835225996363e+01  2.0221069481745943e+01  2.0010464064467925e+01  2.5027470589407681e+01  2.4365857962359055e+01  2.0081212691744845e+01  2.1317993709792773e+01  2.3391960362339354e+01  2.0114211218609338e+01  2.1048242684843540e+01  2.0174625904266126e+01  2.0069969395626465e+01  2.0384918179962703e+01  2.2155852317014961e+01  2.0234502416757241e+01  2.0738764851193284e+01  2.5100672989568025e+01  2.0048457898955458e+01  2.0008683726592619e+01  2.0913878282205118e+01  2.0743844881230647e+01  2.0189177828809246e+01  2.1673358593487293e+01  2.1220860355472272e+01  2.1303654752955570e+01  2.0065828158416743e+01  2.0051965492082626e+01  2.0892825153947676e+01  2.4716347794337249e+01  2.4608512736862359e+01  2.4820213443656257e+01  2.1984364861904147e+01  2.1830508740926827e+01  2.4329611638893780e+01  2.0482883498110681e+01  2.1749352128613378e+01  2.1361821845617904e+01  2.0108016118539066e+01  2.0423424535174384e+01  2.0264196713851049e+01  2.2354255023214336e+01  2.0276769442341397e+01  2.0014423345967163e+01  2.0206159838178277e+01  2.0151007197363452e+01  2.0895705106316463e+01  2.0237247403522648e+01  2.0141014869988336e+01  2.1561490372636516e+01  2.1419905060023535e+01  2.0190874798458392e+01  2.0234508063547114e+01  2.2386654980288181e+01  2.2591131202765617e+01  2.0391718024929698e+01  2.0048364859349451e+01  2.0273615301274596e+01  2.0591493089766111e+01  2.2827080900464807e+01  2.0969469374527346e+01  2.3635217453033015e+01  2.1182453623433929e+01  2.1256873094559982e+01  2.1483715221491689e+01  2.3030026531034281e+01  2.3215646494999056e+01  2.1384601820834916e+01  2.0294200750807651e+01  2.0263657619570040e+01  2.2865475586173915e+01  2.1632838539560183e+01  2.2515391953058163e+01  2.3579588114619124e+01  2.1251343795195240e+01  2.1834350499060147e+01  2.0346232515846513e+01  2.0199057906922615e+01  2.0172998831633191e+01  2.2173564879611732e+01  2.2257616786174854e+01  2.4016125407334712e+01  2.0158483142166563e+01  2.0136099411493845e+01  2.0128000160571784e+01  2.1904968758510488e+01  2.0186248740006778e+01  2.0430425334123221e+01  2.1951246214675859e+01  2.0478740004290493e+01  2.0561399146265302e+01  2.0313999523119858e+01  2.1421854953202615e+01  2.1413200895874038e+01  2.0359798888401276e+01  2.0521519178016050e+01  2.0020958033764739e+01  2.4362327231728436e+01  2.0160447764595926e+01  2.1048923026290932e+01  2.0046119328383096e+01  2.0035125583529204e+01  2.0208633710037198e+01  2.0157180156067263e+01  2.0137804866517616e+01  2.1374327889039055e+01  2.2168843443845027e+01  2.2345376479480748e+01  2.0216938607567098e+01  2.0249361789103645e+01  2.0803158822587267e+01  2.0909624126165689e+01  2.1361672084910445e+01  2.0754879881810517e+01  2.0096371012798425e+01  2.0166905925438446e+01  2.0070804810783144e+01  2.1411630714051874e+01  2.1060773539520902e+01  2.0007501265359291e+01  2.0046411512190112e+01  2.5143370571436449e+01  2.0824426594609829e+01  2.1545734358331636e+01  2.0762505797139564e+01  2.2404574479609384e+01  2.0564025936663896e+01  2.0200009547576361e+01  2.0108809262048702e+01  2.1366984302395387e+01  2.1606110091933399e+01  2.2700608087059145e+01  2.0205201101784649e+01  2.0052304686488661e+01  2.0045555654662284e+01  2.0034780267169985e+01  2.0053664351394172e+01  2.0320421559525105e+01  2.2596022096232655e+01  2.1949221551682509e+01  2.0245901589952261e+01  2.0225653660213890e+01  2.0291797819442600e+01  2.0257619494446384e+01  2.0154215033309182e+01  2.2149194945556584e+01  2.1976479400741116e+01  2.3964440744624891e+01  2.2575292576379276e+01  2.0746608053316315e+01  2.4296750779727809e+01  2.1602107352156384e+01  2.0927333550409731e+01  2.0231161438896763e+01  2.4576101760351488e+01  2.1868674345348435e+01  2.0099423948368724e+01  2.0111646768228976e+01  2.0020558844521538e+01  2.1437991249354784e+01  2.3709359857046657e+01  2.1120713085395582e+01  2.1465266917255263e+01  2.1552897772466952e+01  2.1521150042917490e+01  2.2443894302068422e+01  2.0218533305281799e+01  2.4830613863173198e+01  2.0031782547097432e+01  2.2733055355090489e+01  2.0599417669621882e+01  2.1459789489589948e+01  2.0052021073561527e+01  2.0127856093531570e+01  2.0459445624938240e+01  2.2414407709973698e+01  2.0249435706599982e+01  2.3368662568279287e+01  2.0193029545946640e+01  2.0017720890859806e+01  2.1733541835028603e+01  2.0559608153291553e+01  2.2464088237148378e+01  2.0091556431887270e+01  2.1475506362434423e+01  2.0047169098946153e+01  2.0853880117962628e+01  2.5130897661961601e+01  2.0007867886073996e+01  2.1271198064650523e+01  2.0234388564977234e+01  2.0037152691698751e+01  2.0137697815263909e+01  2.1650291497040367e+01  2.0493342489763499e+01  2.0067625933200819e+01  2.0301144345367444e+01  2.4413894837879742e+01  2.1777635580607871e+01  2.1610849237991967e+01  2.1394800182111517e+01  2.0182632629360693e+01  2.0847308638889704e+01  2.0988393030382561e+01  2.1722886482365542e+01  2.0055545421012503e+01  2.1563406978280977e+01  2.0183545490228404e+01  2.1205956132321727e+01  2.3237869547366909e+01  2.1714060634735240e+01  2.0079250755336282e+01  2.3275450720175307e+01  2.0483038464048878e+01  2.0072837657214290e+01  2.0107740524154682e+01  2.0106630529362732e+01  2.0305566153104291e+01  2.0306684142359757e+01  2.0022115693184610e+01  2.1315578384824132e+01  2.3689813644842339e+01  2.1057028168823088e+01  2.0367312982835731e+01  2.0199815314320720e+01  2.1708479551320099e+01  2.1425360804678700e+01  2.0015736695703126e+01  2.2988328765314890e+01  2.1410773552801604e+01  2.1406159637652813e+01  2.0253436929952368e+01  2.1580735481362115e+01  2.1199915105228250e+01  2.3949704099430914e+01  2.0078120901523889e+01  2.1299622482706667e+01  2.1611404268074633e+01  2.0063864451411842e+01  2.0048001561060872e+01  2.0051469559762385e+01  2.0022308471893115e+01  2.4730762723700778e+01  2.0688112007210410e+01  2.3098848960000172e+01  2.0285509406784357e+01  2.1302872843824666e+01  2.1012543859562125e+01  2.0652387270180370e+01  2.1590967526138332e+01  2.2659196826744925e+01  2.3318194328748696e+01  2.0101192548813284e+01  2.1088612271277249e+01  2.0058290748128890e+01  2.0059386693148632e+01  2.1728549470346788e+01  2.0615242461636054e+01  2.4174586114364974e+01  2.0081578840933808e+01  2.4023431364663516e+01  2.4188893139341740e+01  2.0024226778453357e+01  2.0019521999897076e+01  2.4462653489328918e+01  2.4527866925270153e+01  2.2243240667839942e+01  2.0572006178296203e+01  2.0263807507549039e+01  2.0209007153131036e+01  2.0602001200866930e+01  2.0485093294964884e+01  2.0271579391736715e+01  2.0014417904041775e+01  2.0289573951305254e+01  2.0722523746398110e+01  2.2647564322346991e+01  2.2470621605433351e+01  2.0180211542162592e+01  2.0209840895901205e+01  2.0252635584989939e+01  2.0568741391622954e+01  2.0157817250214233e+01  2.2530327862276803e+01  2.1718758628678579e+01  2.1396137115444226e+01  2.1915987657699873e+01  2.1772957386304480e+01  2.2990852148856277e+01  2.0011572979332875e+01  2.4948061154462778e+01  2.4898624012660502e+01  2.4893232642130844e+01  2.0015238751112271e+01  2.0012169304583040e+01  2.0057746499447461e+01  2.1301122622070331e+01  2.0083632544282100e+01  2.1969489032232165e+01  2.0124128107195581e+01  2.0058251919192685e+01  2.0051307104934100e+01  2.1246752659953650e+01  2.1158031939324875e+01  2.1208915932344635e+01  2.0243556644664469e+01  2.4975764694355835e+01  2.1103965641704058e+01  2.0050452407873372e+01  2.0029395663896874e+01  2.1138795101482582e+01  2.0381290178050410e+01  2.0993071874896270e+01  2.2889934201325730e+01  2.1669734375787108e+01  2.0047690245087022e+01  2.1727893220995568e+01  2.0200011313138663e+01  2.0094661637740497e+01  2.0102290846466335e+01  2.0069781418940433e+01  2.3606051156741394e+01  2.0373463059067852e+01  2.4510088886766457e+01  2.0077455165049688e+01  2.1321418056946893e+01  2.0095082697472375e+01  2.1892549624448485e+01  2.1156433123239093e+01  2.0012491472243504e+01  2.0441872775753943e+01  2.4403455569878599e+01  2.0114028043738031e+01  2.0045516224386603e+01  2.0231517073824186e+01  2.2558155638474478e+01  2.1125358665409703e+01  2.0178539108822434e+01  2.0465528411672921e+01  2.0335520294793955e+01  2.0298575029511703e+01  2.3654074501822588e+01  2.2281631233021550e+01  2.0949900518370516e+01  2.0341416774419518e+01  2.0122357909123032e+01  2.0232391933087566e+01  2.0343181864280229e+01  2.0334228224306027e+01  2.1332725404162623e+01  2.1786682832255355e+01  2.1072718975359823e+01  2.0049978155667048e+01  2.1705500147512591e+01  2.0083255093498007e+01  2.2978269910792047e+01  2.1541325845030215e+01  2.1602274019836081e+01  2.1547098230153917e+01  2.1753629236601125e+01  2.0173087102006072e+01  2.0711573244997592e+01  2.0176300417084175e+01  2.0169657629132125e+01  2.0144200734383968e+01  2.0424925147354916e+01  2.0024157818611048e+01  2.0071830356354120e+01  2.0511048118297321e+01  2.4510764798776297e+01  2.4661287699427955e+01  2.3994391505708411e+01  2.0419980209864001e+01  2.1188745414421856e+01  2.1086330258552312e+01  2.0171610628421739e+01  2.0230188267235551e+01  2.3743282557928310e+01  2.2286875011877044e+01  2.0027729648037770e+01  2.1587513196153122e+01  2.1810537855181341e+01  2.0126362301756174e+01  2.3554285479147570e+01  2.0260137695211160e+01  2.1986957031452413e+01  2.0217193084709958e+01  2.2129022528981160e+01  2.0628328090777003e+01  2.0668408697091436e+01  2.0270385378120224e+01  2.2794046390296813e+01  2.0363084647180070e+01  2.0162728377267676e+01  2.0298343809189188e+01  2.0275335091122912e+01  2.2508485703751710e+01  2.0347658501277920e+01  2.0453149979607382e+01  2.2182130719280352e+01  2.0531734260162338e+01  2.0186098117255426e+01  2.1748577303706604e+01  2.0011256412920424e+01  2.4966787267555500e+01  2.180