<?xml version="1.0"?>
<VTKFile type="UnstructuredGrid"  version="0.1"  >
<UnstructuredGrid>
<Piece  NumberOfPoints="2331" NumberOfCells="4248">
<Points>
<DataArray  type="Float64"  NumberOfComponents="3"  format="ascii">0 0.3 0  0 0 0  0.04999999999999999 0 0  0.0514582251803892 0.02410733605106462 0  0.0558116365147896 0.04786313285751154 0  0.06299675146291706 0.07092097740850717 0  0.07290879486935808 0.09294463440875382 0  0.08540322682126872 0.1136129493462312 0  0.1002978503657798 0.132624531648159 0  0.117375468351841 0.1497021496342203 0  0.1363870506537689 0.1645967731787313 0  0.1570553655912463 0.177091205130642 0  0.1790790225914929 0.187003248537083 0  0.2021368671424885 0.1941883634852104 0  0.2258926639489354 0.1985417748196108 0  0.25 0.2 0  0.2741073360510646 0.1985417748196108 0  0.2978631328575116 0.1941883634852104 0  0.3209209774085071 0.187003248537083 0  0.3429446344087537 0.177091205130642 0  0.3636129493462312 0.1645967731787313 0  0.3826245316481591 0.1497021496342202 0  0.3997021496342202 0.132624531648159 0  0.4145967731787313 0.1136129493462312 0  0.427091205130642 0.09294463440875371 0  0.4370032485370829 0.07092097740850713 0  0.4441883634852104 0.04786313285751155 0  0.4485417748196108 0.02410733605106461 0  0.45 0 0  0.55 0 0  0.5514582251803892 0.02410733605106462 0  0.5558116365147896 0.04786313285751154 0  0.5629967514629171 0.07092097740850717 0  0.5729087948693581 0.09294463440875382 0  0.5854032268212688 0.1136129493462312 0  0.6002978503657798 0.132624531648159 0  0.617375468351841 0.1497021496342203 0  0.6363870506537689 0.1645967731787313 0  0.6570553655912463 0.177091205130642 0  0.6790790225914929 0.187003248537083 0  0.7021368671424885 0.1941883634852104 0  0.7258926639489354 0.1985417748196108 0  0.75 0.2 0  0.7741073360510646 0.1985417748196108 0  0.7978631328575116 0.1941883634852104 0  0.8209209774085071 0.187003248537083 0  0.8429446344087537 0.177091205130642 0  0.8636129493462312 0.1645967731787313 0  0.8826245316481591 0.1497021496342202 0  0.8997021496342202 0.132624531648159 0  0.9145967731787312 0.1136129493462312 0  0.927091205130642 0.09294463440875371 0  0.9370032485370829 0.07092097740850713 0  0.9441883634852104 0.04786313285751155 0  0.9485417748196108 0.02410733605106461 0  0.95 0 0  1 0 0  1 0.3 0  0.9758926639489353 0.3014582251803892 0  0.9521368671424885 0.3058116365147896 0  0.9290790225914928 0.3129967514629171 0  0.9070553655912461 0.3229087948693581 0  0.8863870506537688 0.3354032268212687 0  0.867375468351841 0.3502978503657798 0  0.8502978503657798 0.367375468351841 0  0.8354032268212687 0.3863870506537689 0  0.822908794869358 0.4070553655912464 0  0.8129967514629171 0.4290790225914929 0  0.8058116365147896 0.4521368671424885 0  0.8014582251803892 0.4758926639489354 0  0.8 0.4999999999999999 0  0.8014582251803892 0.5241073360510646 0  0.8058116365147896 0.5478631328575115 0  0.8129967514629171 0.5709209774085071 0  0.8229087948693581 0.5929446344087538 0  0.8354032268212688 0.6136129493462312 0  0.8502978503657798 0.632624531648159 0  0.867375468351841 0.6497021496342202 0  0.8863870506537689 0.6645967731787313 0  0.9070553655912463 0.677091205130642 0  0.9290790225914929 0.6870032485370829 0  0.9521368671424885 0.6941883634852104 0  0.9758926639489354 0.6985417748196108 0  1 0.7 0  1 1 0  0.95 1 0  0.9485417748196108 0.9758926639489353 0  0.9441883634852104 0.9521368671424885 0  0.9370032485370829 0.9290790225914928 0  0.927091205130642 0.9070553655912463 0  0.9145967731787312 0.8863870506537688 0  0.8997021496342201 0.8673754683518409 0  0.882624531648159 0.8502978503657798 0  0.863612949346231 0.8354032268212686 0  0.8429446344087537 0.822908794869358 0  0.8209209774085071 0.8129967514629171 0  0.7978631328575114 0.8058116365147896 0  0.7741073360510646 0.8014582251803892 0  0.75 0.8 0  0.7258926639489353 0.8014582251803892 0  0.7021368671424885 0.8058116365147896 0  0.6790790225914928 0.8129967514629171 0  0.6570553655912461 0.8229087948693581 0  0.6363870506537688 0.8354032268212688 0  0.617375468351841 0.8502978503657798 0  0.6002978503657798 0.867375468351841 0  0.5854032268212687 0.8863870506537689 0  0.572908794869358 0.9070553655912463 0  0.5629967514629171 0.9290790225914929 0  0.5558116365147896 0.9521368671424885 0  0.5514582251803892 0.9758926639489355 0  0.55 0.9999999999999999 0  0.45 0.9999999999999999 0  0.4485417748196108 0.9758926639489353 0  0.4441883634852104 0.9521368671424885 0  0.4370032485370829 0.9290790225914928 0  0.427091205130642 0.9070553655912463 0  0.4145967731787313 0.8863870506537688 0  0.3997021496342201 0.8673754683518409 0  0.382624531648159 0.8502978503657798 0  0.363612949346231 0.8354032268212686 0  0.3429446344087536 0.822908794869358 0  0.3209209774085071 0.8129967514629171 0  0.2978631328575115 0.8058116365147896 0  0.2741073360510646 0.8014582251803892 0  0.25 0.8 0  0.2258926639489353 0.8014582251803892 0  0.2021368671424885 0.8058116365147896 0  0.1790790225914928 0.8129967514629171 0  0.1570553655912462 0.8229087948693581 0  0.1363870506537688 0.8354032268212688 0  0.117375468351841 0.8502978503657798 0  0.1002978503657797 0.867375468351841 0  0.08540322682126869 0.8863870506537689 0  0.07290879486935797 0.9070553655912463 0  0.06299675146291703 0.9290790225914929 0  0.05581163651478957 0.9521368671424885 0  0.0514582251803892 0.9758926639489355 0  0.04999999999999999 0.9999999999999999 0  0 1 0  -0 0.7000000000000001 0  0.0241073360510646 0.6985417748196108 0  0.04786313285751161 0.6941883634852104 0  0.07092097740850711 0.6870032485370829 0  0.09294463440875372 0.677091205130642 0  0.1136129493462312 0.6645967731787312 0  0.1326245316481591 0.6497021496342202 0  0.1497021496342202 0.632624531648159 0  0.1645967731787313 0.6136129493462312 0  0.177091205130642 0.5929446344087537 0  0.187003248537083 0.5709209774085071 0  0.1941883634852104 0.5478631328575115 0  0.1985417748196108 0.5241073360510646 0  0.2 0.5 0  0.1985417748196108 0.4758926639489353 0  0.1941883634852104 0.4521368671424885 0  0.1870032485370829 0.4290790225914928 0  0.177091205130642 0.4070553655912463 0  0.1645967731787313 0.3863870506537688 0  0.1497021496342202 0.3673754683518409 0  0.132624531648159 0.3502978503657798 0  0.113612949346231 0.3354032268212686 0  0.09294463440875361 0.322908794869358 0  0.07092097740850711 0.3129967514629171 0  0.04786313285751148 0.3058116365147896 0  0.02410733605106464 0.3014582251803892 0  0.6985417748196108 0.5241073360510646 0  0.7 0.5 0  0.6985417748196108 0.4758926639489353 0  0.6941883634852104 0.4521368671424885 0  0.6870032485370829 0.4290790225914928 0  0.677091205130642 0.4070553655912463 0  0.6645967731787312 0.3863870506537688 0  0.6497021496342201 0.3673754683518409 0  0.632624531648159 0.3502978503657798 0  0.613612949346231 0.3354032268212686 0  0.5929446344087537 0.322908794869358 0  0.5709209774085071 0.3129967514629171 0  0.5478631328575114 0.3058116365147896 0  0.5241073360510646 0.3014582251803892 0  0.4999999999999999 0.3 0  0.4758926639489353 0.3014582251803892 0  0.4521368671424885 0.3058116365147896 0  0.4290790225914928 0.3129967514629171 0  0.4070553655912462 0.3229087948693581 0  0.3863870506537688 0.3354032268212687 0  0.367375468351841 0.3502978503657798 0  0.3502978503657798 0.367375468351841 0  0.3354032268212687 0.3863870506537689 0  0.322908794869358 0.4070553655912464 0  0.3129967514629171 0.4290790225914929 0  0.3058116365147896 0.4521368671424885 0  0.3014582251803892 0.4758926639489354 0  0.3 0.4999999999999999 0  0.3014582251803892 0.5241073360510646 0  0.3058116365147896 0.5478631328575115 0  0.3129967514629171 0.5709209774085071 0  0.3229087948693581 0.5929446344087538 0  0.3354032268212687 0.6136129493462312 0  0.3502978503657798 0.632624531648159 0  0.367375468351841 0.6497021496342202 0  0.3863870506537689 0.6645967731787313 0  0.4070553655912463 0.677091205130642 0  0.4290790225914929 0.6870032485370829 0  0.4521368671424885 0.6941883634852104 0  0.4758926639489354 0.6985417748196108 0  0.4999999999999999 0.7 0  0.5241073360510646 0.6985417748196108 0  0.5478631328575116 0.6941883634852104 0  0.5709209774085071 0.6870032485370829 0  0.5929446344087537 0.677091205130642 0  0.6136129493462312 0.6645967731787312 0  0.6326245316481591 0.6497021496342202 0  0.6497021496342202 0.632624531648159 0  0.6645967731787312 0.6136129493462312 0  0.677091205130642 0.5929446344087537 0  0.6870032485370829 0.5709209774085071 0  0.6941883634852104 0.5478631328575115 0  0 0.15 0  1 0.15 0  1 0.85 0  0 0.8500000000000001 0  0 0.075 0  1 0.075 0  1 0.925 0  0 0.925 0  0.5 0.8127595604293815 0  0.5069440078039168 0.190422209288238 0  0.25 0.3127595604293815 0  0.756944007803917 0.3095777907117619 0  0.756944007803917 0.6904222092882382 0  0.25 0.6872404395706185 0  0 0.225 0  0.4255768646051012 0.2241073097134061 0  1 0.7749999999999999 0  0.6773391559270888 0.2766774022734219 0  1 0.225 0  0.6755768646051011 0.7241073097134062 0  0 0.7750000000000001 0  0.5818971135297744 0.2287925518358889 0  0.8318971135297746 0.728792551835889 0  0.1659156081861886 0.7301636995921477 0  0.08376842746533225 0.2299656297760495 0  0.4236002201977974 0.7746535834185855 0  0.0840843918138115 0.7698363004078523 0  0.3340843918138113 0.7301636995921477 0  0.3340843918138114 0.2698363004078523 0  0.9159156081861887 0.2301636995921477 0  0.5840843918138116 0.7698363004078522 0  0.1659156081861887 0.2698363004078523 0  0.9162315725346678 0.7700343702239506 0  0.8340843918138114 0.2698363004078523 0  0.75 0.6146645247768686 0  0.5 0.1125158665330878 0  0.75 0.3874841334669124 0  0.2504983345544904 0.6122915843562002 0  0.2504983345544902 0.3877084156437999 0  0.5 0.8879783056303169 0  0.7005361650220154 0.3333055947145943 0  0.70416808765371 0.6599554817221275 0  0.449930214263529 0.1678187287522426 0  0.2247310981387008 0.7415600637745463 0  0.5155081196221678 0.7563797802146907 0  0.2752689018612993 0.2584399362254537 0  0.05605196690611226 0.8246131191226815 0  0.9439480330938878 0.1
[...]
<PointData  Scalars="Temperature"> 
<DataArray  type="Float64"  Name="Temperature"  format="ascii">1.3796662249995592e+234  -1.3885332386304839e+232  -4.0320592661912879e+231  6.2650039458519409e+231  -1.0331629745766413e+232  4.4129453749370467e+232  -3.8350635538731719e+233  1.1364982751135615e+234  4.0919425919056213e+233  1.8370385105562266e+235  9.4848170616499376e+235  -2.5925485891341317e+237  -4.3946239742190350e+237  -5.3607848440917565e+236  -7.6117981503185626e+236  -5.1413188209648600e+237  2.0293862657383832e+238  -8.9647090103150743e+238  2.9549354008322759e+239  -7.2193613252374824e+239  1.4633153443145359e+241  8.6721715522365980e+240  -1.4039846393030710e+240  4.0296350982084095e+239  2.2975298865388233e+237  1.0306698014346665e+237  -2.1113774250372271e+237  6.6495985487054347e+236  -3.8035870821007492e+236  -8.0656540857039225e+234  6.6212231622946109e+234  7.2943561977636737e+234  3.5570226801974988e+235  1.6884983482678291e+235  -1.4402703629194026e+236  1.6150947093914404e+236  1.7823259887471253e+237  4.5247154095514287e+237  1.9274962415284108e+237  8.3286737179544069e+236  8.5555803048122423e+236  -1.2227292447971357e+236  -7.9924195602393526e+236  -1.5763085578758560e+236  -2.3924015725238330e+236  2.0588495584146685e+237  2.0221367646450141e+238  -3.7008635544872860e+238  -1.1426085611306744e+240  -2.4538418771194829e+240  -1.2257319779844259e+241  1.9183036930658649e+241  -4.1815938271373248e+240  -1.9596694237977705e+240  -4.4141152719576047e+239  1.6952326657193857e+239  -9.8533226308103150e+238  7.2280692648612715e+236  9.2594252939207242e+236  1.1994510333113722e+237  1.8989277372964011e+237  9.7015012438097688e+236  5.1895637753040182e+236  2.6204570128095096e+235  -1.0659608981676911e+234  6.0133021284238664e+234  4.7412536486352078e+234  -1.6985433621642032e+235  3.6616246873261444e+236  -1.4622137372981155e+237  -1.2695802093426151e+238  8.6476972051789232e+238  -2.7893239993112271e+239  1.9015374904156992e+240  -1.6194738416044019e+241  1.4586389732050638e+241  -4.9484631979746913e+242  -1.0656595347133534e+244  -1.9690283872390491e+244  -3.1440681458454212e+245  4.6726902155923102e+244  5.6817415606957584e+246  -1.0957626246139718e+247  -3.9617920565115645e+247  -2.7098556220211554e+244  1.4351310538152036e+245  -2.0795394793884413e+245  -1.9795828047744881e+245  -3.3829322528953082e+246  3.9350320345471004e+246  -1.8957401456163492e+247  1.1674675260963778e+247  -9.1307836275874697e+244  -1.4819436549632162e+246  -4.8360515814637601e+245  7.9597367282920166e+244  7.5007091847525091e+243  1.0547902156462160e+242  6.7240622434152639e+241  3.3469450831047162e+240  1.6294770303592978e+239  -1.2041164816986753e+239  4.6097287778786066e+237  1.5475885368152686e+237  7.1192661973773967e+236  1.7640045345484037e+237  7.0669031421003602e+238  -5.9490094992971901e+238  2.0091857089060627e+238  4.3405952069479685e+236  -5.1901314266684781e+236  -1.1862909642436650e+237  -1.5917044597019708e+235  6.5487537879071005e+234  -2.3733791379188209e+235  8.6380692630004107e+235  -1.0275348130456049e+236  5.5674949217116420e+235  -1.3460574182183994e+236  1.2402465338665542e+236  -8.5461520287911622e+236  2.3958773319161343e+236  -3.9154325816795694e+236  3.0530758381449135e+236  1.6610158611038094e+236  3.1349435842336481e+237  -6.6688984206056080e+237  1.0845052689320802e+239  6.0294065696574339e+237  -3.6939244283003901e+235  -5.0175027547576600e+236  5.3148123035603372e+235  -1.4591466555482594e+235  8.5628778410941276e+234  -1.6362021769864860e+234  4.1492883307864959e+233  -2.0346845484018755e+233  1.4733291547501569e+232  -3.4843763327923715e+230  2.4284399039867449e+232  -3.2201666631823903e+236  5.0671364629419424e+237  2.9822083618443327e+238  -1.2868934740937784e+238  2.7065356679954371e+240  -9.8974976956397114e+240  6.7626634008076559e+241  3.1608063729579801e+241  -6.9359637058218095e+240  -3.7659859664806116e+239  6.3460560511535175e+237  -2.6846863294194348e+238  6.9416034558890411e+237  3.5206495347712547e+236  1.8848596333533328e+237  1.8853996877801835e+235  2.0083976796005821e+235  -2.5417211106286516e+235  4.2340294328884704e+235  1.7556627135981461e+235  4.1751188450133603e+235  -1.8440024915355645e+236  -2.1191755884301301e+237  1.2355288807781775e+236  -9.7426162961805268e+235  -1.1903329771465603e+235  8.7847127929328219e+236  -9.8054603826983370e+236  5.1504938587610875e+235  -6.4690485577635283e+235  -6.2403572970493565e+232  -1.5643354533167132e+234  3.6605176548417263e+234  5.1999647622088362e+234  3.1095866351615014e+235  1.9259078253956831e+233  1.8794912802998221e+234  -3.2401391351930793e+234  -4.6199854950217457e+234  -6.9971164231727698e+235  -3.0915983948158193e+236  2.8881894931010954e+236  4.1633714452441518e+236  5.3908165386077610e+237  -1.8470628689520133e+236  5.1039566454347899e+235  -6.1410339573663628e+235  1.7442196754570605e+235  1.1481302249369424e+234  8.1516478615772857e+234  -3.1075898490097479e+235  5.0389946549059328e+235  7.7889235149276781e+235  -2.2821779089785366e+236  5.1602670235247087e+237  7.4961119079714437e+236  -4.0042597517948734e+237  -3.5825573316972508e+236  -1.3977703533032760e+238  5.1961741579337219e+237  -8.6819515092286122e+238  -3.7012476709141735e+239  3.6473491715296580e+240  8.4367715324481969e+240  6.9323278506518523e+240  5.5876500731755076e+239  -1.1200050878458112e+239  -4.0236600803165022e+238  5.4423452783582690e+237  -4.1803643079752320e+237  -5.8686798737077528e+236  7.5844122392181435e+236  1.7189209308792952e+237  -1.7754960153864695e+236  6.1049448691650130e+237  -2.2904098458489747e+238  -1.0566227385470791e+239  -8.1602309627199540e+237  5.2700313735288643e+233  6.6182844413622000e+238  3.0313430473608209e+249  1.1892369145777382e+235  1.8027444175396961e+232  4.8645215032932481e+239  5.8538996862550756e+246  1.7490293483681306e+233  8.0920374825117734e+236  4.5170020708844242e+237  -1.1866521518213755e+234  8.7755539479459268e+236  -1.1013738926817338e+241  2.4017820330114760e+238  4.2033536229591902e+233  -3.6717871008842951e+238  2.9130785303408653e+249  5.1669379005763026e+236  -2.1420425803285297e+237  -3.6879998861416007e+238  -1.3088305737694039e+236  -2.2399166785289673e+235  -1.0828038609314447e+244  -2.6740005475793478e+239  -1.5059222809266661e+235  4.2462008605171523e+238  -5.1483398746174451e+237  -9.9692266426451216e+237  -3.9663515811315133e+237  -4.4042342140560127e+236  -6.0979250762416271e+236  -1.2177956228792814e+236  -1.9989606166662433e+247  -1.1160340043993212e+236  6.1816774010675694e+239  -1.4627390453633090e+237  -2.1944641600946316e+234  1.4947257976840967e+239  6.6361549792412823e+235  9.3796515463846036e+235  1.1657469170321819e+236  -6.9176114954113761e+238  -5.0825216863852436e+238  1.4911637747373750e+238  2.9843405394014675e+237  7.0532930524288637e+236  -1.6516728147273785e+236  6.2573731002359881e+238  -1.1881093471414059e+233  -3.2113389272688239e+248  2.8081367898748046e+236  -4.6537681999647758e+240  -9.0563027087444914e+237  1.2810243034306374e+237  4.1645943643316064e+240  8.8576292890418079e+232  -8.7746946169362277e+237  3.1822073616024882e+236  -1.8710586632702577e+236  -4.1818540439519514e+235  7.9417919804270308e+234  -1.7406914408124057e+238  -5.2943308905875871e+235  4.1931300483336448e+238  9.6572480249898648e+235  3.9579524231060474e+236  -2.1356063810554083e+235  -1.1458791364268481e+237  1.3282000128393319e+236  -6.3127612773300866e+241  -3.0111305899563589e+235  4.1838394239278125e+234  9.7724269765313452e+237  3.3029119483664787e+239  -2.3533054833416083e+238  8.4918654479750096e+236  7.5511384027312906e+234  -2.3329441791468970e+242  -1.4528958501081196e+237  1.8996792525166641e+237  9.9757939656614467e+235  -2.9563346881443686e+237  -1.2563699425050314e+238  -1.1021148164513201e+239  -5.7031945370510731e+236  -3.6716720131249877e+245  -4.8230766088192071e+245  4.7932599279729279e+238  5.2542442450515217e+235  -2.1666040102232219e+237  2.6008879192039373e+236  -1.5349776484434830e+238  -7.2115206858586225e+236  -3.2982516707538184e+239  7.0259970059244092e+236  -1.7897773658657271e+237  -2.9459755298368678e+247  -7.3789637157714752e+234  1.7530837380546777e+240  -1.4843522501588420e+248  3.4156251190187208e+233  9.1936442329505334e+234  -3.0045315470609836e+234  -1.1426077902365105e+243  2.1066633326200022e+236  -5.2189672265509519e+239  6.5419017784380236e+236  3.3174485114180472e+238  9.6882004802182997e+235  -9.3573896764391253e+237  -5.0851149823135040e+236  -1.9450105128384205e+240  -7.4432060979707362e+235  1.4646196325302757e+235  -3.2797049005430737e+246  1.1097199275082513e+240  -8.3577465984993141e+234  -2.1462363967094343e+237  -1.1922635871489517e+244  1.1222008041247267e+235  2.9157360605329761e+238  5.5613569872397363e+236  -2.7103005256874485e+235  -3.1981842772954305e+237  3.7680879287443037e+237  -8.5785661757365991e+237  1.2456192642481240e+240  -6.1637331451661885e+239  -8.9780377499099479e+235  -4.4028245219697596e+239  -2.9698966246503033e+234  -2.6950270775217257e+237  -4.2027404559767127e+243  2.7439082753652622e+236  -8.2002730863909979e+236  2.3486354506025929e+238  -3.2704726361643085e+236  -3.0727555649320577e+235  -2.1797281165658278e+235  2.3549708545762038e+237  -2.2022217073535482e+238  8.1251062743218753e+233  -3.3737553064289914e+236  -1.8731999927675891e+237  -4.6824654272379169e+236  1.1506495014378861e+237  -7.7235380094837185e+235  -1.4592320846181376e+238  -1.5595025144951516e+237  4.8212637445447935e+247  -2.3083786032402966e+238  -9.7143129934607869e+235  1.5474757034901184e+235  9.0210844648204299e+237  1.3395862452176943e+233  2.7273143036046127e+239  4.3066894821205165e+238  3.6590641014494492e+240  3.4853871223029225e+238  1.2649926661345292e+235  1.6782229981379448e+237  1.3154455723570843e+235  8.1585375494439669e+238  -5.7801264614261396e+237  -3.8010731449228736e+236  -5.7687361321778954e+234  -2.7710340552341572e+234  -2.0146844525368167e+238  9.0399709488143577e+236  -1.5673754748568164e+236  -3.6552945542641812e+250  -7.5960732496226953e+236  -2.6633330108215004e+248  -1.1234836937748202e+236  9.8638027552083732e+233  2.7128673045801165e+239  -1.0312990220309955e+232  -2.7441782502926388e+239  7.0910570887402450e+239  -2.5490239070919048e+233  3.5107464922564616e+245  1.0069130147036975e+232  4.8504674522562440e+247  -1.0164625678962132e+234  9.6449143021983604e+233  3.6085369728315815e+235  2.8477348930164752e+238  -1.4653228429397853e+238  -2.9010964912964691e+236  3.0961134362011824e+236  -5.4701345620602783e+246  -4.7401948596297982e+236  -5.0512082124293545e+236  -1.1870028969106547e+242  -4.0561623553639265e+239  5.3419547450726652e+239  -5.0282196908716922e+248  1.4716496434900479e+235  -9.2913463951791933e+235  1.3693712587973268e+239  1.0163582847647465e+235  -3.4161653455256597e+236  1.6880719821218832e+234  1.5691800766165961e+236  -1.2182641830054821e+238  5.7817393702295309e+235  1.2352870431786440e+238  -2.1135096384919063e+238  -7.3230864826117065e+237  7.0246034909461423e+247  1.1693182610188754e+233  -6.2719505976632617e+235  -7.5586910601378853e+242  1.3507844923225937e+237  3.7630283741383764e+234  1.6992816836617134e+235  7.4875344857817127e+234  2.5700417005744994e+239  1.5559993442872091e+236  4.4693794746822825e+235  7.0548206634922378e+238  -1.1107613806863473e+237  6.0664272568387311e+239  4.4385651795489093e+231  -8.1972825555239898e+239  2.5257453969777166e+246  5.5493808043914953e+232  -3.5869201326518590e+237  2.4944450857805188e+238  -2.5192815673829015e+237  1.2023171126527962e+235  5.6662854721102710e+235  3.3154462153915200e+239  -4.0775205398339347e+237  -3.0530930205732351e+237  -4.7951779610042059e+234  -3.6686214633705788e+233  4.4070033920215571e+233  -4.0633845792516168e+239  -1.3552414903725896e+239  -5.6265227235758248e+235  6.3768668715906261e+237  5.6083813944972694e+238  -2.0932752822037381e+237  -2.6352240323379297e+238  -3.2847239925829334e+234  -2.1916456052895239e+237  1.9263253193317492e+240  -5.9882742559579532e+236  1.5543972259401614e+249  2.2543333466957752e+238  -1.9966979303028651e+240  -9.8267953518638129e+235  6.2517929196217569e+236  -1.4569093955561328e+235  -1.0786629543087244e+236  -1.6226342246874512e+235  -1.9742508263944222e+236  -1.8338172702360851e+235  -3.5507836819294465e+236  -1.5615449558661168e+236  2.5196723899243911e+237  -9.7502302732111316e+244  4.3004196209900255e+235  1.7800010287524821e+236  2.8740233202416128e+232  7.6700817047763371e+238  -1.9665021365160703e+235  -1.4230864873683407e+237  7.4215861181671975e+237  -1.0400453021603917e+239  8.5228920538502678e+237  2.3298984301375293e+235  -1.1544480846403082e+238  2.1209182523531566e+236  -2.4452637191084527e+237  -9.0681707738677608e+235  -7.0120310681828738e+239  1.5598151696911593e+235  2.2846972914693391e+235  -2.1921988287962275e+238  4.6956783349680557e+240  8.9394762520131988e+236  3.6938626981968465e+237  -1.2086012686661082e+238  -1.0326473899328530e+237  -5.3211183263702977e+237  6.8931097295068141e+235  -7.0275810773469073e+239  -4.5075645479806670e+240  -7.5006331728187020e+240  1.3269888054669525e+237  -1.5888255865260923e+239  1.0829751314574699e+238  6.2982757946514552e+237  2.3060380882153695e+236  5.6985299024959498e+237  1.5250747459977535e+237  1.5741672389597856e+235  -3.8924899741460401e+237  -7.8685291310597743e+236  1.8104298839353420e+236  -2.2162451331171623e+248  -5.3019060670600347e+235  3.2551089829535751e+235  5.2925479407541446e+235  -7.5280173255369025e+244  7.5498997204562998e+244  3.7650572564524251e+236  -1.1713652138756443e+236  -5.5724588530659921e+237  1.7029117326281703e+237  -6.5172937474623646e+236  -7.7979511143756293e+237  6.1962489207177139e+237  -1.1996427745014725e+237  2.9366425841254083e+239  -5.2475236638964183e+235  7.1203094357997021e+236  4.6776083521849478e+235  2.7996117333256740e+236  1.0658116810517839e+239  -8.6314098665367762e+237  -2.7579524134885030e+236  -8.6434926612246058e+235  7.4070700445734454e+244  3.1032516506832652e+238  4.4274844645300324e+230  -2.6468821668701778e+230  2.4435856320700035e+238  -3.7898321385489440e+233  6.8389358276085863e+237  7.1622903372239786e+236  -6.3391551652793300e+238  7.6864054647595645e+234  6.5253846231754881e+235  -1.0158548385458263e+237  5.2701408156292842e+235  -3.2609251979825037e+236  -4.0578650269894030e+244  -2.2453905384138138e+245  -2.7212482403905896e+246  -4.2460227313922588e+244  9.0601834744335719e+236  -1.9469733100805493e+239  2.4089748894227621e+239  3.8113942751860373e+235  1.0975774071245256e+236  5.2504078129960851e+236  -2.1296814027407434e+236  -3.2480677738637524e+239  -2.4394024361766824e+237  1.2931631790739340e+238  -5.7215397878473173e+235  4.9861283419210028e+236  -2.0738316005323154e+238  -4.3023783532910476e+235  -4.3511355532340071e+236  -2.7379997881417456e+238  -2.5294047056083615e+234  -2.7404228579216764e+233  -1.2041157832370188e+239  -1.0332495015813467e+242  -3.1144103914266364e+241  -3.3181879491147340e+247  1.4224657146093809e+238  4.2595020415443038e+234  -6.1913180461682149e+236  -2.1490976561284345e+238  -1.0708544708230129e+239  -1.4999157593927990e+237  -1.2571267319134112e+237  -1.4101315914276821e+236  -1.3223653491146208e+234  8.2214311359706216e+245  9.7729768376676086e+235  -3.9999989311392887e+234  -1.8415722914336828e+236  1.2144555419334439e+237  -1.0237622900236474e+241  2.1177566275207831e+235  -1.7073907296081696e+236  -4.7120056471660996e+237  1.6124467986758851e+235  -7.2713414073458016e+233  -6.4159873065493883e+248  2.1439276656800279e+239  5.7949921609833667e+235  -5.3492120055275291e+234  6.1149746586277115e+237  -1.5097021174409059e+237  4.6602684612178403e+239  -8.5707178006080600e+231  8.3938598435143720e+231  3.7990329165923807e+245  -3.2091048630479407e+237  -2.6516152558328671e+233  -6.0965079990547457e+245  -1.3620353698642453e+236  -1.4771651964070764e+240  2.3984356042369799e+236  4.8107443838492787e+236  3.7005094755639527e+236  -3.0843040865550879e+235  1.2352542751194982e+241  -2.8549991491942144e+238  -6.5450668899503282e+237  -1.9664140517878573e+236  -2.2982974831810912e+239  3.3644188504800911e+238  -5.0686982351049914e+236  4.9316353492842400e+236  -8.5643494252411614e+236  5.0832392833619039e+234  2.6303673450022755e+236  2.3402071246510533e+237  7.0614365413946566e+237  -6.9296387817615554e+242  1.5565092260689362e+234  2.0518549154381777e+239  -2.3552614841027876e+243  -5.0668052397796373e+241  -4.4885793552009219e+241  -1.1017273729927228e+238  -2.8151412384297482e+234  -9.6377985979008543e+247  5.6392020505368362e+235  -2.0052569453193397e+236  -5.8902673514066374e+235  -3.0784902378347341e+236  3.0995642323822421e+238  3.3913597825306791e+238  1.1843387429230799e+236  -1.8390662240922234e+249  -8.7705888616730184e+235  -6.5100614379206161e+237  -1.6138758659107336e+235  -3.0302823526761429e+235  -3.0610027709447246e+236  3.4040336198263657e+235  -1.1798229835563730e+237  -3.2130372554284188e+238  8.9962303026016612e+235  1.1466736214780783e+238  5.4217482115718129e+236  5.9902781858969769e+236  8.0198755370802335e+236  3.0345847860748314e+247  2.9173507312363147e+233  8.9868949930402023e+236  -4.4036113288726689e+235  -2.5426522543638548e+237  -1.6790137603588806e+237  -9.3961745865375152e+235  -3.3725659258500131e+234  1.2052462452989332e+237  9.3032113395292476e+234  -3.1594070171326027e+236  2.0452137577991632e+236  2.4358653451274202e+234  6.8208856102979640e+240  1.4453588643713007e+244  1.0569658726889709e+240  1.8307283779554270e+240  3.5839103156703972e+236  7.0577322356076762e+236  -2.2837677140735495e+237  -1.1757701413430498e+237  7.3279375842494105e+246  1.6265456169126373e+247  -3.2166401715261535e+233  1.6100641183482098e+234  2.4041728204574793e+238  2.4379322705302751e+237  -1.5720821128371394e+235  -1.6009334299905979e+233  6.0797983199042146e+238  2.7177909609808654e+238  -2.2567158967796477e+238  1.1091676773906597e+250  9.1143585532496528e+237  -9.4778268315274373e+237  6.1058498676928015e+235  -8.9811128435541391e+236  -4.8841270584853382e+235  1.7458684838386301e+236  8.3285114808330521e+237  4.1005826141023430e+239  1.7604485769796298e+240  1.5343755113460707e+235  -3.0092622685222256e+238  1.8540837661119805e+236  1.4662124794615098e+240  5.5742641352066106e+239  2.1983357250357259e+235  -2.9612986968052096e+248  2.8691315489920988e+233  1.1125355111056887e+234  -5.0435858662715523e+233  -3.7396707253777349e+247  1.3162462801340233e+247  -3.6212365261174956e+243  5.2918005118292099e+237  -3.3191237180372289e+242  5.8648742486025587e+238  5.9258077206504515e+240  1.7427512464369702e+239  3.3516350951761327e+239  5.0805930165093820e+235  4.0669457960381754e+234  2.8747989666775143e+235  3.5844720370690515e+237  2.1673897670980971e+232  1.6881280912552756e+234  3.1379062129445724e+239  -1.2387294674966798e+247  1.6115504123524210e+236  -2.3129151760701926e+236  -7.1639503974580245e+234  1.5246912494261163e+235  2.0156218622450335e+239  -2.7335831623477765e+236  1.0407961703418451e+237  6.7817265237637772e+237  -2.2146733886787201e+242  -7.3106273074735187e+241  -5.3619058725355222e+243  -7.2325132124607299e+235  -5.0469759813587185e+236  1.7063997401797741e+236  -2.1481806656371890e+243  1.8214412215009382e+236  -1.5489621265870247e+239  8.7232837959593976e+238  6.2228884472019384e+236  -1.7234698965319874e+249  7.9234540302680638e+235  -4.2523932961859469e+234  -4.4932631316511621e+241  1.0317015764539071e+239  8.2549080871532837e+237  2.6478225132037818e+238  1.0662899876482686e+236  -4.2103900563302679e+237  1.1056151767770405e+237  -4.2582255785270023e+236  -3.0086431850925270e+234  -1.4225957073865228e+235  -1.0178947708144042e+237  -2.7214647840606514e+236  -1.3676430062663692e+234  4.3869734391457874e+235  -2.5869353636613935e+235  -4.9434844253205152e+235  1.4324368200179145e+237  1.4761855518216996e+238  7.2022883912398535e+240  -1.6583791969194225e+239  -2.2371978825330564e+235  6.8343754264683992e+236  -2.2007980050476737e+236  -2.2300139729773243e+235  -5.27977006