<?xml version="1.0"?>
<VTKFile type="UnstructuredGrid"  version="0.1"  >
<UnstructuredGrid>
<Piece  NumberOfPoints="2331" NumberOfCells="4248">
<Points>
<DataArray  type="Float64"  NumberOfComponents="3"  format="ascii">0 0.3 0  0 0 0  0.04999999999999999 0 0  0.0514582251803892 0.02410733605106462 0  0.0558116365147896 0.04786313285751154 0  0.06299675146291706 0.07092097740850717 0  0.07290879486935808 0.09294463440875382 0  0.08540322682126872 0.1136129493462312 0  0.1002978503657798 0.132624531648159 0  0.117375468351841 0.1497021496342203 0  0.1363870506537689 0.1645967731787313 0  0.1570553655912463 0.177091205130642 0  0.1790790225914929 0.187003248537083 0  0.2021368671424885 0.1941883634852104 0  0.2258926639489354 0.1985417748196108 0  0.25 0.2 0  0.2741073360510646 0.1985417748196108 0  0.2978631328575116 0.1941883634852104 0  0.3209209774085071 0.187003248537083 0  0.3429446344087537 0.177091205130642 0  0.3636129493462312 0.1645967731787313 0  0.3826245316481591 0.1497021496342202 0  0.3997021496342202 0.132624531648159 0  0.4145967731787313 0.1136129493462312 0  0.427091205130642 0.09294463440875371 0  0.4370032485370829 0.07092097740850713 0  0.4441883634852104 0.04786313285751155 0  0.4485417748196108 0.02410733605106461 0  0.45 0 0  0.55 0 0  0.5514582251803892 0.02410733605106462 0  0.5558116365147896 0.04786313285751154 0  0.5629967514629171 0.07092097740850717 0  0.5729087948693581 0.09294463440875382 0  0.5854032268212688 0.1136129493462312 0  0.6002978503657798 0.132624531648159 0  0.617375468351841 0.1497021496342203 0  0.6363870506537689 0.1645967731787313 0  0.6570553655912463 0.177091205130642 0  0.6790790225914929 0.187003248537083 0  0.7021368671424885 0.1941883634852104 0  0.7258926639489354 0.1985417748196108 0  0.75 0.2 0  0.7741073360510646 0.1985417748196108 0  0.7978631328575116 0.1941883634852104 0  0.8209209774085071 0.187003248537083 0  0.8429446344087537 0.177091205130642 0  0.8636129493462312 0.1645967731787313 0  0.8826245316481591 0.1497021496342202 0  0.8997021496342202 0.132624531648159 0  0.9145967731787312 0.1136129493462312 0  0.927091205130642 0.09294463440875371 0  0.9370032485370829 0.07092097740850713 0  0.9441883634852104 0.04786313285751155 0  0.9485417748196108 0.02410733605106461 0  0.95 0 0  1 0 0  1 0.3 0  0.9758926639489353 0.3014582251803892 0  0.9521368671424885 0.3058116365147896 0  0.9290790225914928 0.3129967514629171 0  0.9070553655912461 0.3229087948693581 0  0.8863870506537688 0.3354032268212687 0  0.867375468351841 0.3502978503657798 0  0.8502978503657798 0.367375468351841 0  0.8354032268212687 0.3863870506537689 0  0.822908794869358 0.4070553655912464 0  0.8129967514629171 0.4290790225914929 0  0.8058116365147896 0.4521368671424885 0  0.8014582251803892 0.4758926639489354 0  0.8 0.4999999999999999 0  0.8014582251803892 0.5241073360510646 0  0.8058116365147896 0.5478631328575115 0  0.8129967514629171 0.5709209774085071 0  0.8229087948693581 0.5929446344087538 0  0.8354032268212688 0.6136129493462312 0  0.8502978503657798 0.632624531648159 0  0.867375468351841 0.6497021496342202 0  0.8863870506537689 0.6645967731787313 0  0.9070553655912463 0.677091205130642 0  0.9290790225914929 0.6870032485370829 0  0.9521368671424885 0.6941883634852104 0  0.9758926639489354 0.6985417748196108 0  1 0.7 0  1 1 0  0.95 1 0  0.9485417748196108 0.9758926639489353 0  0.9441883634852104 0.9521368671424885 0  0.9370032485370829 0.9290790225914928 0  0.927091205130642 0.9070553655912463 0  0.9145967731787312 0.8863870506537688 0  0.8997021496342201 0.8673754683518409 0  0.882624531648159 0.8502978503657798 0  0.863612949346231 0.8354032268212686 0  0.8429446344087537 0.822908794869358 0  0.8209209774085071 0.8129967514629171 0  0.7978631328575114 0.8058116365147896 0  0.7741073360510646 0.8014582251803892 0  0.75 0.8 0  0.7258926639489353 0.8014582251803892 0  0.7021368671424885 0.8058116365147896 0  0.6790790225914928 0.8129967514629171 0  0.6570553655912461 0.8229087948693581 0  0.6363870506537688 0.8354032268212688 0  0.617375468351841 0.8502978503657798 0  0.6002978503657798 0.867375468351841 0  0.5854032268212687 0.8863870506537689 0  0.572908794869358 0.9070553655912463 0  0.5629967514629171 0.9290790225914929 0  0.5558116365147896 0.9521368671424885 0  0.5514582251803892 0.9758926639489355 0  0.55 0.9999999999999999 0  0.45 0.9999999999999999 0  0.4485417748196108 0.9758926639489353 0  0.4441883634852104 0.9521368671424885 0  0.4370032485370829 0.9290790225914928 0  0.427091205130642 0.9070553655912463 0  0.4145967731787313 0.8863870506537688 0  0.3997021496342201 0.8673754683518409 0  0.382624531648159 0.8502978503657798 0  0.363612949346231 0.8354032268212686 0  0.3429446344087536 0.822908794869358 0  0.3209209774085071 0.8129967514629171 0  0.2978631328575115 0.8058116365147896 0  0.2741073360510646 0.8014582251803892 0  0.25 0.8 0  0.2258926639489353 0.8014582251803892 0  0.2021368671424885 0.8058116365147896 0  0.1790790225914928 0.8129967514629171 0  0.1570553655912462 0.8229087948693581 0  0.1363870506537688 0.8354032268212688 0  0.117375468351841 0.8502978503657798 0  0.1002978503657797 0.867375468351841 0  0.08540322682126869 0.8863870506537689 0  0.07290879486935797 0.9070553655912463 0  0.06299675146291703 0.9290790225914929 0  0.05581163651478957 0.9521368671424885 0  0.0514582251803892 0.9758926639489355 0  0.04999999999999999 0.9999999999999999 0  0 1 0  -0 0.7000000000000001 0  0.0241073360510646 0.6985417748196108 0  0.04786313285751161 0.6941883634852104 0  0.07092097740850711 0.6870032485370829 0  0.09294463440875372 0.677091205130642 0  0.1136129493462312 0.6645967731787312 0  0.1326245316481591 0.6497021496342202 0  0.1497021496342202 0.632624531648159 0  0.1645967731787313 0.6136129493462312 0  0.177091205130642 0.5929446344087537 0  0.187003248537083 0.5709209774085071 0  0.1941883634852104 0.5478631328575115 0  0.1985417748196108 0.5241073360510646 0  0.2 0.5 0  0.1985417748196108 0.4758926639489353 0  0.1941883634852104 0.4521368671424885 0  0.1870032485370829 0.4290790225914928 0  0.177091205130642 0.4070553655912463 0  0.1645967731787313 0.3863870506537688 0  0.1497021496342202 0.3673754683518409 0  0.132624531648159 0.3502978503657798 0  0.113612949346231 0.3354032268212686 0  0.09294463440875361 0.322908794869358 0  0.07092097740850711 0.3129967514629171 0  0.04786313285751148 0.3058116365147896 0  0.02410733605106464 0.3014582251803892 0  0.6985417748196108 0.5241073360510646 0  0.7 0.5 0  0.6985417748196108 0.4758926639489353 0  0.6941883634852104 0.4521368671424885 0  0.6870032485370829 0.4290790225914928 0  0.677091205130642 0.4070553655912463 0  0.6645967731787312 0.3863870506537688 0  0.6497021496342201 0.3673754683518409 0  0.632624531648159 0.3502978503657798 0  0.613612949346231 0.3354032268212686 0  0.5929446344087537 0.322908794869358 0  0.5709209774085071 0.3129967514629171 0  0.5478631328575114 0.3058116365147896 0  0.5241073360510646 0.3014582251803892 0  0.4999999999999999 0.3 0  0.4758926639489353 0.3014582251803892 0  0.4521368671424885 0.3058116365147896 0  0.4290790225914928 0.3129967514629171 0  0.4070553655912462 0.3229087948693581 0  0.3863870506537688 0.3354032268212687 0  0.367375468351841 0.3502978503657798 0  0.3502978503657798 0.367375468351841 0  0.3354032268212687 0.3863870506537689 0  0.322908794869358 0.4070553655912464 0  0.3129967514629171 0.4290790225914929 0  0.3058116365147896 0.4521368671424885 0  0.3014582251803892 0.4758926639489354 0  0.3 0.4999999999999999 0  0.3014582251803892 0.5241073360510646 0  0.3058116365147896 0.5478631328575115 0  0.3129967514629171 0.5709209774085071 0  0.3229087948693581 0.5929446344087538 0  0.3354032268212687 0.6136129493462312 0  0.3502978503657798 0.632624531648159 0  0.367375468351841 0.6497021496342202 0  0.3863870506537689 0.6645967731787313 0  0.4070553655912463 0.677091205130642 0  0.4290790225914929 0.6870032485370829 0  0.4521368671424885 0.6941883634852104 0  0.4758926639489354 0.6985417748196108 0  0.4999999999999999 0.7 0  0.5241073360510646 0.6985417748196108 0  0.5478631328575116 0.6941883634852104 0  0.5709209774085071 0.6870032485370829 0  0.5929446344087537 0.677091205130642 0  0.6136129493462312 0.6645967731787312 0  0.6326245316481591 0.6497021496342202 0  0.6497021496342202 0.632624531648159 0  0.6645967731787312 0.6136129493462312 0  0.677091205130642 0.5929446344087537 0  0.6870032485370829 0.5709209774085071 0  0.6941883634852104 0.5478631328575115 0  0 0.15 0  1 0.15 0  1 0.85 0  0 0.8500000000000001 0  0 0.075 0  1 0.075 0  1 0.925 0  0 0.925 0  0.5 0.8127595604293815 0  0.5069440078039168 0.190422209288238 0  0.25 0.3127595604293815 0  0.756944007803917 0.3095777907117619 0  0.756944007803917 0.6904222092882382 0  0.25 0.6872404395706185 0  0 0.225 0  0.4255768646051012 0.2241073097134061 0  1 0.7749999999999999 0  0.6773391559270888 0.2766774022734219 0  1 0.225 0  0.6755768646051011 0.7241073097134062 0  0 0.7750000000000001 0  0.5818971135297744 0.2287925518358889 0  0.8318971135297746 0.728792551835889 0  0.1659156081861886 0.7301636995921477 0  0.08376842746533225 0.2299656297760495 0  0.4236002201977974 0.7746535834185855 0  0.0840843918138115 0.7698363004078523 0  0.3340843918138113 0.7301636995921477 0  0.3340843918138114 0.2698363004078523 0  0.9159156081861887 0.2301636995921477 0  0.5840843918138116 0.7698363004078522 0  0.1659156081861887 0.2698363004078523 0  0.9162315725346678 0.7700343702239506 0  0.8340843918138114 0.2698363004078523 0  0.75 0.6146645247768686 0  0.5 0.1125158665330878 0  0.75 0.3874841334669124 0  0.2504983345544904 0.6122915843562002 0  0.2504983345544902 0.3877084156437999 0  0.5 0.8879783056303169 0  0.7005361650220154 0.3333055947145943 0  0.70416808765371 0.6599554817221275 0  0.449930214263529 0.1678187287522426 0  0.2247310981387008 0.7415600637745463 0  0.5155081196221678 0.7563797802146907 0  0.2752689018612993 0.2584399362254537 0  0.05605196690611226 0.8246131191226815 0  0.9439480330938878 0.1
[...]
<PointData  Scalars="Temperature"> 
<DataArray  type="Float64"  Name="Temperature"  format="ascii">7.0963202934247718e+04  2.7301341955132308e+01  1.9599904581115734e+01  4.9654688753946324e+01  -4.9334073838763246e+01  6.6571555236633606e+02  -1.8176707660865709e+03  1.6113372935206067e+04  2.1933856556336358e+05  -1.8065444466091035e+05  -2.6786429832300518e+07  -3.2518371566813666e+08  -2.5291311564772935e+09  -1.6601962265168833e+10  8.4672246578457565e+10  3.5478235443605341e+11  -3.2992036477359375e+11  6.1167737722308564e+12  -8.8444642957243105e+12  -2.0472817605504164e+13  4.4235250038573450e+14  1.2097937565065698e+15  7.2147361892930050e+14  2.2262112996413798e+15  -1.2130846391017010e+15  -2.9503530275607738e+14  -1.4491805488231562e+14  3.7069367551548914e+13  -2.9786870898996238e+13  -7.2635793919270800e+14  1.3304267231755880e+15  -2.4273671292427400e+15  4.5926087800301168e+16  -2.6987569862658179e+17  -2.9769090094184525e+18  2.0053364454779182e+18  7.9299729986138604e+19  1.1689322466691778e+20  4.8236697443510026e+20  -1.2331521748821494e+21  1.8125813777944522e+22  -1.4845756783627285e+22  3.7924099813838383e+20  5.7186748084799406e+20  3.8547120786975930e+21  -1.2202596944078337e+20  -1.2432681766862069e+21  2.5779242498810249e+19  -7.1235040269093470e+19  3.2310416832028923e+18  -4.6989730083887299e+18  1.4921381715617247e+18  -8.3754137885390432e+16  -3.1707597708396604e+16  -2.8319789516653080e+15  7.4869162117081950e+14  -2.8684058844376461e+13  6.8245426672873054e+21  1.9934884961715699e+22  1.4280180976054860e+23  9.5444738528804349e+23  5.1705751168017110e+24  4.5403480003191115e+25  1.0034633309236074e+26  -5.0325463835871542e+25  9.2038491135910083e+27  -4.8793227037778958e+28  1.3540319694747970e+29  -2.7977747928368335e+30  1.1208842208389077e+31  9.7209103673624546e+31  -6.6238914963024990e+32  2.1385414441419809e+33  -1.4539391686126262e+34  1.2402173899514910e+35  -1.1152994086499362e+35  3.7938132398545266e+36  8.1655154990552067e+37  1.5080848414504622e+38  2.4080497741011489e+39  -3.5788262784990473e+38  -4.3516616130883917e+40  8.3924763215746478e+40  3.0343475201588682e+41  2.0754859340017205e+38  -1.0991708530278998e+39  1.5927250528013460e+39  1.5161679585854463e+39  2.5909971916952982e+40  -3.0138519451622835e+40  1.4519526334802318e+41  -8.9416661504901867e+40  6.9932924945256961e+38  1.1350247540459489e+40  3.7039453141322052e+39  -6.0963844262025088e+38  -5.7448137451029044e+37  -8.0786668563478807e+35  -5.1499739103115437e+35  -2.5634376934520439e+34  -1.2479860372498155e+33  9.2213534737054037e+32  -3.5081209509756035e+31  -1.5842891414830465e+31  4.8218833998627794e+30  -2.8346161177030651e+29  1.3217804030647407e+29  -1.0650633010607033e+28  4.5156398194821109e+27  1.3364830728379664e+26  -4.1755302475849478e+25  -2.4905619605990380e+25  -5.4948252518516251e+23  1.5360333032896768e+23  -2.5220319007865980e+24  3.2447387665901229e+24  4.1658562316101386e+24  1.6613473882197608e+24  -2.0887006661693890e+24  -1.4743976290234370e+24  1.2275125474516969e+23  3.9520541405360238e+22  -7.0845217164161251e+21  1.7816208234183789e+21  -2.9074110436832195e+20  -4.2116698299428282e+19  9.3300409017133363e+18  -1.5028972502693491e+18  -1.9125756158428128e+16  6.5898860382475340e+15  6.8106926269385525e+14  -1.1407363834054321e+12  7.1622877956925049e+12  -5.5526948520592761e+11  -3.5375791963670364e+10  -1.4044135086748659e+10  -3.8399498811540399e+09  -1.7867192090164971e+08  2.7508153126074904e+08  2.8308999096999139e+08  -1.7634388511685208e+11  2.5579017116163626e+11  3.0274196010412754e+12  -9.8821141911565547e+12  -1.3922391927021589e+14  -3.8598939489914606e+14  3.2283394146089280e+15  5.7539170151504680e+15  -2.8003038787750170e+15  1.3270639845983948e+16  2.2275055960842488e+15  -3.5257863687717144e+14  2.6246301776804397e+14  -9.4254339411384141e+13  -3.8328419594658820e+13  6.5135592475179961e+12  -1.6094953984112600e+12  4.6512078098964490e+11  -1.4421866192588000e+11  -1.6489164349995026e+10  8.0983361095480847e+08  -2.9078321832268554e+08  -1.0428590927295259e+08  1.6839546150775207e+06  -2.3431181537578828e+06  -3.1473894374460488e+05  -2.7457509348299057e+29  5.0716282948126496e+30  1.2661696273580770e+29  4.6369453620449247e+29  8.2721248909560322e+27  -3.9877507253281164e+27  6.2864477968580512e+26  -4.1101584911351239e+24  -1.4624163403550896e+25  -4.6107011547851042e+23  -1.9525078052253578e+23  -2.5817465707937834e+21  5.6599655886955290e+21  1.3825398543758700e+21  2.6967743492049928e+19  1.7948810576608858e+19  1.3860989795811587e+18  -1.0844053034889750e+18  -8.0532749951045728e+16  1.4335160056581728e+15  -8.8186585033113438e+14  -5.9850587727555367e+13  4.0647136309136885e+12  -1.4328559587168770e+12  -2.2219359368859414e+12  -3.4408849992552703e+13  2.3137619541205506e+14  -1.0421482680523196e+15  7.9212320193023480e+15  -1.0289527018760778e+16  -5.1846066472124448e+16  -5.6494268954996009e+18  1.4991876369766717e+18  6.5611165238313078e+20  -2.8776847516729202e+21  -1.0460313311884595e+22  2.7886477732373209e+23  1.0981105634569630e+24  4.9382098845698042e+24  5.5678295346295531e+24  3.6422270232920025e+26  5.7018391904753144e+26  5.4056879628482022e+28  -7.9421902083441061e+28  2.5232329870618013e+30  -2.4367592143362176e+30  -8.7255827554154278e+30  -1.3830912716434027e+31  -6.9822518662151982e+29  -4.8645762761098209e+31  7.7537934097874359e+31  6.1872458551572418e+30  -9.6186385667171351e+02  -6.9908224373680763e+18  -2.3217140443935339e+43  1.8780713726052917e+10  2.8062256061009602e+01  2.0968153190451188e+16  -4.4835179996806425e+40  -3.8028925118000727e+09  -1.6598659295648197e+27  1.3559821550783841e+18  -2.5342117817650669e+10  -4.6763557807968489e+25  8.4364747378752328e+34  9.1821822632771789e+18  6.7552040327812510e+03  -6.9437686157056728e+16  -2.2311349229187546e+43  2.3965686864321026e+22  5.3240759779244507e+20  2.8245146317944577e+32  4.9454585941733893e+11  -5.5548747613939171e+20  8.2932169347831238e+37  3.4201445916230830e+15  1.2971757903054133e+06  -6.6289847399987862e+24  2.5682396891801273e+13  3.9111353317923257e+21  -4.2166823154381988e+14  1.3404264713128862e+22  2.4692989833503650e+30  2.0123891619402287e+09  1.5310094784395400e+41  7.4779182355389608e+22  -4.7365161407277384e+33  -2.7341813144644340e+16  -1.5023031191084097e+27  1.4296937923279987e+18  -2.5005495495051111e+11  -3.0706705243706697e+26  -1.1275884351414909e+25  5.3267079498771412e+32  3.6256714267308512e+16  7.1768950592704560e+15  3.3712331315941892e+27  -1.0557070836149031e+13  2.3465166896856753e+12  -1.5021157908805870e+19  1.6549815292108102e+04  2.4595733878549490e+42  -5.4266439871106017e+18  3.5643309025863721e+34  -2.0938492100165432e+23  -3.2671477162743773e+25  9.9936252946066976e+16  2.1872824723989029e+09  1.0415887435029370e+20  8.0733905855500889e+12  -6.3078775387266158e+27  4.5195156473898688e+14  -7.2533126703616506e+28  1.3238778054486088e+32  -3.9253754088774917e+12  9.8657567068542040e+15  4.6748976037710408e+23  5.9146721944048949e+25  -1.7648974887764276e+11  -3.0898631412225917e+19  -2.3003936396388340e+19  4.8349478052722929e+35  -9.5001327566844100e+25  -7.6178220682852402e+21  -4.0797757268793456e+16  -1.8441319703051402e+15  1.8029118082506142e+32  -4.6130119880739310e+30  -1.7339251414312180e+23  1.7868138660905892e+36  1.6781451580071962e+23  -1.3688366340401981e+31  -9.7457425047642438e+13  -1.0244376316044900e+15  1.4018101147122939e+23  1.9962565365443598e+23  -1.1912840661102684e+20  2.8121437781661723e+39  3.6940078764355902e+39  -7.7178483613483302e+26  -4.7416501873049820e+06  -2.6293862595686124e+11  -8.8023829820730727e+21  2.8074304423484790e+15  -2.5097207505539536e+08  3.9967102972961631e+14  1.5964575870773150e+21  -1.2113604757715178e+22  2.2563308260166675e+41  -1.2126914429680446e+05  -1.8936108336891871e+18  1.1368695037736790e+42  9.2218022739948333e+02  8.3985098905563202e+10  -5.7216679589196081e+27  8.7515620856134724e+36  -1.2556922351341414e+18  3.9973095381033214e+33  -7.5460088379527119e+30  8.1159040085042219e+21  -1.7506386537387618e+08  7.9117069848673059e+20  -6.7268444066010825e+14  -9.7393603097188480e+15  1.2993198569206192e+14  -2.4864542001040876e+06  2.5119350763955841e+40  3.0265177202495334e+17  -2.0780014036440589e+09  -7.7917571267869860e+27  9.1317084067595121e+37  3.1467715916119641e+11  6.8648631419109745e+18  -7.1589324985616273e+22  4.7823080113772252e+24  -3.0440155288667530e+23  -1.2675280638748101e+18  6.4983639105846343e+31  4.8513905789018131e+14  4.7207988101642259e+33  -1.6883226790528819e+25  2.3072134553101543e+25  -5.9223360833239090e+21  3.3540667649257678e+23  3.2188902340267729e+37  2.8299010850249618e+20  2.9354551891176774e+17  -1.0654860751514669e+14  1.2484138032341844e+21  -7.4794817076085873e+09  -1.4801581749104562e+25  1.7847602097993711e+29  -1.2131255485851945e+18  7.0345699996684678e+04  -2.5445892765274918e+22  -3.8005891298809787e+20  1.7687692310703643e+12  -1.1287200373586845e+28  2.0428910708276254e+11  -7.7565545828431022e+18  3.1376187452916663e+24  -3.6926192689343944e+41  6.5010066239581510e+15  1.9920911496018638e+26  1.3088053613443842e+27  1.2920720032149152e+17  3.7176051865452864e+03  -2.0943451803269229e+33  -2.4073709343633046e+32  -2.8029845961320879e+34  -7.7286587078688870e+15  2.0199829162725598e+11  8.4468783538293207e+18  4.5672509881251605e+11  1.6044475382017971e+13  -8.2359801319515162e+14  -6.8362349709740820e+15  3.8384758320582471e+28  3.2872410329813126e+27  -9.8932886586981322e+27  -4.1100975034718814e+26  -6.3499174703809628e+25  2.7996002334407503e+44  -1.0661330483096127e+11  2.0398541370976560e+42  -8.4310211675974500e+19  1.2736592288147329e+04  3.9547803199345155e+15  1.1453351370587372e+01  -2.8803078414057174e+17  -1.9172073024897597e+17  -1.1845174961455150e+02  -2.6888904719884421e+39  -5.0663164022629477e+07  -3.7149864696391540e+41  2.9327399890794960e+10  -1.9839375407647484e+10  -9.4394809683144836e+11  3.5735180873597766e+17  1.4447608437808870e+18  -1.9472051906825922e+13  -2.6481406852761605e+26  4.1895912239085823e+40  5.3618349546683466e+19  1.8505265816873783e+10  9.0912802571064681e+35  3.1096468167712753e+33  1.4139937591739260e+26  3.8511274020130623e+42  1.5828606809589511e+29  -2.2406494569013002e+19  1.8034735877796882e+18  7.6483841382160904e+10  9.1035210007932425e+07  -2.2446893041454401e+22  -1.8715187492457439e+18  1.4849357988793772e+24  -5.9433529011537670e+26  2.4014559773335824e+28  1.6237002183280133e+32  5.6842214084882884e+31  -5.3801632894781158e+41  -2.3902753792861051e+02  -4.5014532739126183e+07  5.7906428867145301e+36  7.9385296601969443e+19  6.8971132140062195e+10  1.9708813663584505e+22  -3.5589535929256071e+19  -1.9559670489809625e+33  -3.5525346210279728e+22  3.0010181413706667e+26  -1.3551956929654160e+16  8.8522318933788585e+30  2.5937677640675788e+24  9.9819087098930872e+00  -2.5589123992195432e+16  -1.9344754021921289e+40  4.4447228073751030e+09  -1.0804787465079426e+23  -1.4232601817188886e+32  -1.2411913763297964e+18  -4.6029349420237152e+11  5.6515152624390186e+11  -9.3565441648256512e+18  1.0406188049422257e+18  1.2554324998313851e+22  3.8889747586301964e+04  -2.0499607446690917e+05  2.3715276318255092e+03  5.5626604724647410e+15  -1.1275528879678382e+17  -2.1343142624099981e+06  -1.3133863268871191e+26  -1.1792043263696784e+14  1.0643045733247702e+15  -2.4919749652482496e+21  -3.0383826160341655e+23  5.8418496919821259e+22  -1.5730621795498766e+14  5.6484227347796071e+30  -1.1905171449247904e+43  -1.6133250531216138e+32  1.5296995124409058e+34  -8.7805974442993304e+19  7.3997559580618403e+25  -1.2187420006843155e+26  1.3916125112274247e+14  3.1082040543175388e+14  1.5557958245894695e+30  1.3433582846129477e+29  -5.4889762566588070e+13  -3.6937456282483398e+13  -5.0273385517534160e+23  7.4677382813206251e+38  2.8670142168182137e+24  -8.8178856044221746e+20  -5.3737782649305945e+13  5.0924554813099045e+22  3.7922065916773729e+09  -5.0630574736799261e+19  2.1541140728190804e+18  -9.1891323318444832e+16  -4.5076626054116484e+12  -1.3086457863575762e+12  7.2900267218089492e+18  -3.4939731322416967e+29  5.6858119962973349e+28  -1.8680437975327319e+12  -5.8435568449542272e+16  -1.0608678750489533e+13  -1.1469140539034529e+09  -2.8225641773738233e+20  3.3185665122717712e+16  -1.9609362888963959e+28  -2.4269831187121725e+31  9.2648628238307265e+31  -2.5005789367032900e+15  -1.0910912752282956e+15  -1.6620668548203057e+08  5.3823370584841593e+33  3.4523517200410695e+34  5.7448156039720722e+34  -3.4211634764282285e+17  1.2170446004088458e+33  -2.1012399564063722e+27  1.1396355685738314e+16  3.5164043766566735e+24  1.6517026603296100e+25  1.0449666593677917e+26  -1.8424629381106158e+19  -5.7552319499345306e+18  -7.5385337792580991e+22  5.5513431330007143e+22  1.6974282920095755e+42  5.3261309184573241e+07  2.2301287158841401e+26  -8.4783480019911526e+18  5.7657293415403216e+38  -5.7824891230601526e+38  6.3149078844393370e+24  1.8154512961199980e+24  -9.5420009851665567e+21  2.7993064132394940e+16  -1.2226949266133830e+15  -1.3383402692989612e+15  -4.7963924394092352e+31  8.3699630723484227e+30  -4.6710578677491096e+23  -2.4565145980681817e+20  -2.0190772657833741e+17  2.4741679900509520e+20  5.1517192149979214e+22  -7.9518953970736919e+32  6.2670750125833978e+20  2.3630399485341590e+13  -1.1992421450556079e+21  -5.6730954832925086e+38  -3.9097497456943450e+14  2.8884866868514937e+01  9.9444332457022488e+07  1.1043208283196595e+18  1.6036737726972860e+22  1.7851903299833159e+14  -4.0156696676874602e+24  4.8547657224261019e+32  -1.9599286064482501e+24  1.6519162371394710e+15  -1.9274156111386062e+14  -2.4231175950034062e+12  2.9332515547540724e+22  3.1079316080660236e+38  1.7197508641325837e+39  2.0842115750366215e+40  3.2520405579361193e+38  -4.2987870020632379e+29  -8.4238592197971156e+13  4.7236423040239984e+16  3.0861185821726537e+24  2.0962731631855481e+24  1.4573276560511520e+25  1.9888559795968196e+30  2.4894812449542023e+33  3.8263635682543105e+15  2.7447713184801572e+16  1.8297344904015872e+08  -2.8005113155297527e+13  6.5951085848228160e+23  1.9358086778738379e+07  1.2241102456673272e+18  9.7603099296206086e+21  2.1983020373975424e+28  2.6541547992580148e+04  7.3404221824059130e+15  7.9139001516601795e+35  2.3855597379143990e+35  2.5414093499264595e+41  1.8937470260507102e+20  -2.0403928101938923e+10  1.3362459619393946e+20  2.6447299234263340e+16  4.3929140044354110e+15  6.0241933605524662e+14  -1.6121261012558497e+14  9.9534100683748222e+29  -2.5957526134849700e+03  -6.2968168979455916e+39  4.4222911631079648e+12  5.2959428653730678e+23  5.9215460450205908e+11  -5.2815326263550689e+19  7.8399559378861285e+34  1.6547770709211033e+25  -2.1728391033834447e+14  -2.7022500464215653e+29  2.0607682284157103e+08  7.9065756919588127e+25  4.9140224664558240e+42  5.4808402141426570e+13  6.3618447654804273e+22  -2.4110053523004575e+12  6.1944271958174429e+21  1.6085974445187210e+15  1.7774665408421130e+15  -4.2762580269286704e+08  2.9860312493421439e+01  -2.9096898436635752e+39  3.1993096709721585e+18  1.0325552649956550e+27  4.6693323915177438e+39  -1.0536529215362795e+23  -2.6991370701752838e+14  -9.5870129022923839e+21  8.2394025657814196e+22  2.0948457593769244e+30  1.9277338485359726e+05  3.9007203857999200e+15  -2.3881719620173637e+13  4.1425164464127287e+19  3.0978035858973073e+23  -1.8584489271399706e+22  4.3551562027854819e+22  1.8004152601541104e+12  1.0818362111330370e+22  1.4360114584057527e+12  -2.9557984971681636e+28  1.7168829296793709e+19  -4.4241384600456042e+11  -3.7489524913487526e+17  5.3074300572644091e+36  -2.9284355316001286e+10  2.6912178052699781e+24  1.8038982609901771e+37  3.8806774863913970e+35  3.4379039279902251e+35  -4.0810216004465681e+24  -9.8657836447661625e+24  7.3816166669911956e+41  -9.1701305631463328e+16  -8.4413177516073093e+09  3.4149562432192178e+20  -4.1121919732943936e+26  -2.6287084527000082e+32  4.6569369235737201e+18  1.1784182162668459e+14  1.4085459198562650e+43  -4.3590038967774355e+12  -1.8185495819354538e+19  -1.2835456919973566e+14  -5.7632001093330766e+23  7.8183595904634414e+12  -2.4001180161699196e+16  6.4398880258553123e+08  7.4410681831086735e+19  1.6907179032821613e+13  -1.3687195266453258e+13  -5.5185525474194966e+21  -1.8456750633417359e+20  1.2161202579593015e+21  -2.3241969010611928e+41  1.9655939199490302e+04  2.1449194617034745e+20  1.4832511120671378e+11  -1.2791401810410558e+27  -5.7309453128876720e+19  -7.4570129508418388e+20  1.9437488690908786e+22  -4.3400350243270861e+18  -2.6678443839215302e+11  -1.7182837736092444e+12  3.5829733277535356e+24  1.0525600816914388e+11  -3.0508276516238508e+16  -1.1070043460530538e+38  2.2690262296253446e+17  8.9198974509796997e+24  1.2316429196632912e+07  4.7934623797467253e+23  2.0644289325955813e+09  1.5395033043269563e+08  -5.6124877131723031e+40  -1.2457757976174879e+41  -2.6049009887303713e+04  4.7033277283984434e+05  6.0981513767876850e+15  -2.4764544569071822e+24  8.7524448892401507e+28  3.8320634855748922e+27  -1.0895887865129144e+26  1.1905283604251340e+27  4.1619595821917037e+23  -8.4951459928867850e+43  1.9268542610693178e+28  -4.4019594329345728e+23  5.0041484319283320e+12  -1.7022040921417903e+14  -7.8118663772244168e+26  -1.5810329338302631e+30  -1.2570526248003704e+27  -5.0087857727374833e+24  -1.3482562206556259e+34  -2.1602245995712175e+12  2.6101798355679885e+15  1.9961063876360476e+12  3.5369177750366072e+16  1.4099113585173478e+18  -6.2199043483527390e+10  2.2680668821045436e+42  -4.0085050390150650e+02  -1.8749764026705179e+03  -1.1129827339965543e+04  2.8642241768298904e+41  -1.0081166752565477e+41  2.7741832731659151e+37  2.9841803844377851e+18  2.5421784143744729e+36  -2.6468529226458896e+16  -4.5424498491987512e+34  -6.3269701409755105e+18  7.6270941438831859e+17  4.3989485317829199e+11  -1.3125878466824907e+10  5.6216160292909523e+10  4.1113805833413025e+26  2.9057929604114274e+03  -5.5428213501877319e+10  -1.1086562174345984e+17  9.4874633362254431e+40  -2.6764308707521940e+18  1.5923487961462542e+24  -3.0122900236117334e+21  3.0860012033027557e+10  5.3209589280262287e+18  -6.5630234041073048e+20  1.1416151508295900e+11  -1.8849485446432510e+31  1.6963124151349536e+36  5.5995807914908183e+35  4.1067280085088412e+37  -9.7967350561312363e+10  -6.8283388126529410e+26  -2.9090234908102718e+06  1.6453999902500145e+37  -1.5494890739058453e+14  -2.4843504394847083e+20  1.7671841672278582e+17  6.3589432084004659e+18  1.3200103720862361e+43  9.7257858060543381e+25  -1.7187037013168662e+05  3.4414001613350409e+35  3.9852367310684675e+14  -6.3167252392020181e+31  -5.9068195202732312e+14  1.8440587749312528e+20  3.2381715013731087e+31  -8.7007491242428377e+26  2.1057188061977057e+29  6.4256720146363730e+27  -1.4103114277877302e+09  -2.7594028016115219e+14  2.9867604271777049e+21  1.1872052184477761e+27  3.7604920578450649e+25  4.3707940238468668e+25  -4.6299359155716893e+25  1.9259666582362633e+27  -1.9624599070581644e+16  -1.1256269746291128e+15  -1.0164955573902148e+22  -3.6803140614324974e+21  -2.2558762157223203e+11  3.9800060488345811e+22  -3.2146771464213513e+11  -4.0589769761179453e+18  -1.4655215349418838e+16  -5.1506884053608936e+16  -4.1777278576623776e+16  -1.0363682229511129e+20  1.3887917421200133e+24  7.2681528727218119e+32  -1.9718854788016074e+32  1.1156854429980809e+34  2.9800731824177587e+25  1.0591620443123446e+41  -7.5160999070607196e+19  -1.2658968890345867e+24  -5.7515389304949213e+06  -2.0287853968762764e+05  1.8764827243771425e+08  1.5062407732519380e+22  -2.1153568034635178e+21  2.3482662647585705e+21  -5.6995350035279210e+27  2.3600176644611468e+30  -1.4028567000044320e+09  7.7315578559141725e+14  -3.0177461937267079e+40  -5.8106991835315292e+18  3.6462118578247782e+17  -1.5494191424768446e+23  -2.6161212752736313e+10  6.7713812437149085e+30  9.7183740837042660e+15  -1.2189211808017034e+32  -8.6704522058928250e+14  -1.5031230530526836e+24  -6.673