<?xml version="1.0"?>
<VTKFile type="UnstructuredGrid"  version="0.1"  >
<UnstructuredGrid>
<Piece  NumberOfPoints="2331" NumberOfCells="4248">
<Points>
<DataArray  type="Float64"  NumberOfComponents="3"  format="ascii">0 0.3 0  0 0 0  0.04999999999999999 0 0  0.0514582251803892 0.02410733605106462 0  0.0558116365147896 0.04786313285751154 0  0.06299675146291706 0.07092097740850717 0  0.07290879486935808 0.09294463440875382 0  0.08540322682126872 0.1136129493462312 0  0.1002978503657798 0.132624531648159 0  0.117375468351841 0.1497021496342203 0  0.1363870506537689 0.1645967731787313 0  0.1570553655912463 0.177091205130642 0  0.1790790225914929 0.187003248537083 0  0.2021368671424885 0.1941883634852104 0  0.2258926639489354 0.1985417748196108 0  0.25 0.2 0  0.2741073360510646 0.1985417748196108 0  0.2978631328575116 0.1941883634852104 0  0.3209209774085071 0.187003248537083 0  0.3429446344087537 0.177091205130642 0  0.3636129493462312 0.1645967731787313 0  0.3826245316481591 0.1497021496342202 0  0.3997021496342202 0.132624531648159 0  0.4145967731787313 0.1136129493462312 0  0.427091205130642 0.09294463440875371 0  0.4370032485370829 0.07092097740850713 0  0.4441883634852104 0.04786313285751155 0  0.4485417748196108 0.02410733605106461 0  0.45 0 0  0.55 0 0  0.5514582251803892 0.02410733605106462 0  0.5558116365147896 0.04786313285751154 0  0.5629967514629171 0.07092097740850717 0  0.5729087948693581 0.09294463440875382 0  0.5854032268212688 0.1136129493462312 0  0.6002978503657798 0.132624531648159 0  0.617375468351841 0.1497021496342203 0  0.6363870506537689 0.1645967731787313 0  0.6570553655912463 0.177091205130642 0  0.6790790225914929 0.187003248537083 0  0.7021368671424885 0.1941883634852104 0  0.7258926639489354 0.1985417748196108 0  0.75 0.2 0  0.7741073360510646 0.1985417748196108 0  0.7978631328575116 0.1941883634852104 0  0.8209209774085071 0.187003248537083 0  0.8429446344087537 0.177091205130642 0  0.8636129493462312 0.1645967731787313 0  0.8826245316481591 0.1497021496342202 0  0.8997021496342202 0.132624531648159 0  0.9145967731787312 0.1136129493462312 0  0.927091205130642 0.09294463440875371 0  0.9370032485370829 0.07092097740850713 0  0.9441883634852104 0.04786313285751155 0  0.9485417748196108 0.02410733605106461 0  0.95 0 0  1 0 0  1 0.3 0  0.9758926639489353 0.3014582251803892 0  0.9521368671424885 0.3058116365147896 0  0.9290790225914928 0.3129967514629171 0  0.9070553655912461 0.3229087948693581 0  0.8863870506537688 0.3354032268212687 0  0.867375468351841 0.3502978503657798 0  0.8502978503657798 0.367375468351841 0  0.8354032268212687 0.3863870506537689 0  0.822908794869358 0.4070553655912464 0  0.8129967514629171 0.4290790225914929 0  0.8058116365147896 0.4521368671424885 0  0.8014582251803892 0.4758926639489354 0  0.8 0.4999999999999999 0  0.8014582251803892 0.5241073360510646 0  0.8058116365147896 0.5478631328575115 0  0.8129967514629171 0.5709209774085071 0  0.8229087948693581 0.5929446344087538 0  0.8354032268212688 0.6136129493462312 0  0.8502978503657798 0.632624531648159 0  0.867375468351841 0.6497021496342202 0  0.8863870506537689 0.6645967731787313 0  0.9070553655912463 0.677091205130642 0  0.9290790225914929 0.6870032485370829 0  0.9521368671424885 0.6941883634852104 0  0.9758926639489354 0.6985417748196108 0  1 0.7 0  1 1 0  0.95 1 0  0.9485417748196108 0.9758926639489353 0  0.9441883634852104 0.9521368671424885 0  0.9370032485370829 0.9290790225914928 0  0.927091205130642 0.9070553655912463 0  0.9145967731787312 0.8863870506537688 0  0.8997021496342201 0.8673754683518409 0  0.882624531648159 0.8502978503657798 0  0.863612949346231 0.8354032268212686 0  0.8429446344087537 0.822908794869358 0  0.8209209774085071 0.8129967514629171 0  0.7978631328575114 0.8058116365147896 0  0.7741073360510646 0.8014582251803892 0  0.75 0.8 0  0.7258926639489353 0.8014582251803892 0  0.7021368671424885 0.8058116365147896 0  0.6790790225914928 0.8129967514629171 0  0.6570553655912461 0.8229087948693581 0  0.6363870506537688 0.8354032268212688 0  0.617375468351841 0.8502978503657798 0  0.6002978503657798 0.867375468351841 0  0.5854032268212687 0.8863870506537689 0  0.572908794869358 0.9070553655912463 0  0.5629967514629171 0.9290790225914929 0  0.5558116365147896 0.9521368671424885 0  0.5514582251803892 0.9758926639489355 0  0.55 0.9999999999999999 0  0.45 0.9999999999999999 0  0.4485417748196108 0.9758926639489353 0  0.4441883634852104 0.9521368671424885 0  0.4370032485370829 0.9290790225914928 0  0.427091205130642 0.9070553655912463 0  0.4145967731787313 0.8863870506537688 0  0.3997021496342201 0.8673754683518409 0  0.382624531648159 0.8502978503657798 0  0.363612949346231 0.8354032268212686 0  0.3429446344087536 0.822908794869358 0  0.3209209774085071 0.8129967514629171 0  0.2978631328575115 0.8058116365147896 0  0.2741073360510646 0.8014582251803892 0  0.25 0.8 0  0.2258926639489353 0.8014582251803892 0  0.2021368671424885 0.8058116365147896 0  0.1790790225914928 0.8129967514629171 0  0.1570553655912462 0.8229087948693581 0  0.1363870506537688 0.8354032268212688 0  0.117375468351841 0.8502978503657798 0  0.1002978503657797 0.867375468351841 0  0.08540322682126869 0.8863870506537689 0  0.07290879486935797 0.9070553655912463 0  0.06299675146291703 0.9290790225914929 0  0.05581163651478957 0.9521368671424885 0  0.0514582251803892 0.9758926639489355 0  0.04999999999999999 0.9999999999999999 0  0 1 0  -0 0.7000000000000001 0  0.0241073360510646 0.6985417748196108 0  0.04786313285751161 0.6941883634852104 0  0.07092097740850711 0.6870032485370829 0  0.09294463440875372 0.677091205130642 0  0.1136129493462312 0.6645967731787312 0  0.1326245316481591 0.6497021496342202 0  0.1497021496342202 0.632624531648159 0  0.1645967731787313 0.6136129493462312 0  0.177091205130642 0.5929446344087537 0  0.187003248537083 0.5709209774085071 0  0.1941883634852104 0.5478631328575115 0  0.1985417748196108 0.5241073360510646 0  0.2 0.5 0  0.1985417748196108 0.4758926639489353 0  0.1941883634852104 0.4521368671424885 0  0.1870032485370829 0.4290790225914928 0  0.177091205130642 0.4070553655912463 0  0.1645967731787313 0.3863870506537688 0  0.1497021496342202 0.3673754683518409 0  0.132624531648159 0.3502978503657798 0  0.113612949346231 0.3354032268212686 0  0.09294463440875361 0.322908794869358 0  0.07092097740850711 0.3129967514629171 0  0.04786313285751148 0.3058116365147896 0  0.02410733605106464 0.3014582251803892 0  0.6985417748196108 0.5241073360510646 0  0.7 0.5 0  0.6985417748196108 0.4758926639489353 0  0.6941883634852104 0.4521368671424885 0  0.6870032485370829 0.4290790225914928 0  0.677091205130642 0.4070553655912463 0  0.6645967731787312 0.3863870506537688 0  0.6497021496342201 0.3673754683518409 0  0.632624531648159 0.3502978503657798 0  0.613612949346231 0.3354032268212686 0  0.5929446344087537 0.322908794869358 0  0.5709209774085071 0.3129967514629171 0  0.5478631328575114 0.3058116365147896 0  0.5241073360510646 0.3014582251803892 0  0.4999999999999999 0.3 0  0.4758926639489353 0.3014582251803892 0  0.4521368671424885 0.3058116365147896 0  0.4290790225914928 0.3129967514629171 0  0.4070553655912462 0.3229087948693581 0  0.3863870506537688 0.3354032268212687 0  0.367375468351841 0.3502978503657798 0  0.3502978503657798 0.367375468351841 0  0.3354032268212687 0.3863870506537689 0  0.322908794869358 0.4070553655912464 0  0.3129967514629171 0.4290790225914929 0  0.3058116365147896 0.4521368671424885 0  0.3014582251803892 0.4758926639489354 0  0.3 0.4999999999999999 0  0.3014582251803892 0.5241073360510646 0  0.3058116365147896 0.5478631328575115 0  0.3129967514629171 0.5709209774085071 0  0.3229087948693581 0.5929446344087538 0  0.3354032268212687 0.6136129493462312 0  0.3502978503657798 0.632624531648159 0  0.367375468351841 0.6497021496342202 0  0.3863870506537689 0.6645967731787313 0  0.4070553655912463 0.677091205130642 0  0.4290790225914929 0.6870032485370829 0  0.4521368671424885 0.6941883634852104 0  0.4758926639489354 0.6985417748196108 0  0.4999999999999999 0.7 0  0.5241073360510646 0.6985417748196108 0  0.5478631328575116 0.6941883634852104 0  0.5709209774085071 0.6870032485370829 0  0.5929446344087537 0.677091205130642 0  0.6136129493462312 0.6645967731787312 0  0.6326245316481591 0.6497021496342202 0  0.6497021496342202 0.632624531648159 0  0.6645967731787312 0.6136129493462312 0  0.677091205130642 0.5929446344087537 0  0.6870032485370829 0.5709209774085071 0  0.6941883634852104 0.5478631328575115 0  0 0.15 0  1 0.15 0  1 0.85 0  0 0.8500000000000001 0  0 0.075 0  1 0.075 0  1 0.925 0  0 0.925 0  0.5 0.8127595604293815 0  0.5069440078039168 0.190422209288238 0  0.25 0.3127595604293815 0  0.756944007803917 0.3095777907117619 0  0.756944007803917 0.6904222092882382 0  0.25 0.6872404395706185 0  0 0.225 0  0.4255768646051012 0.2241073097134061 0  1 0.7749999999999999 0  0.6773391559270888 0.2766774022734219 0  1 0.225 0  0.6755768646051011 0.7241073097134062 0  0 0.7750000000000001 0  0.5818971135297744 0.2287925518358889 0  0.8318971135297746 0.728792551835889 0  0.1659156081861886 0.7301636995921477 0  0.08376842746533225 0.2299656297760495 0  0.4236002201977974 0.7746535834185855 0  0.0840843918138115 0.7698363004078523 0  0.3340843918138113 0.7301636995921477 0  0.3340843918138114 0.2698363004078523 0  0.9159156081861887 0.2301636995921477 0  0.5840843918138116 0.7698363004078522 0  0.1659156081861887 0.2698363004078523 0  0.9162315725346678 0.7700343702239506 0  0.8340843918138114 0.2698363004078523 0  0.75 0.6146645247768686 0  0.5 0.1125158665330878 0  0.75 0.3874841334669124 0  0.2504983345544904 0.6122915843562002 0  0.2504983345544902 0.3877084156437999 0  0.5 0.8879783056303169 0  0.7005361650220154 0.3333055947145943 0  0.70416808765371 0.6599554817221275 0  0.449930214263529 0.1678187287522426 0  0.2247310981387008 0.7415600637745463 0  0.5155081196221678 0.7563797802146907 0  0.2752689018612993 0.2584399362254537 0  0.05605196690611226 0.8246131191226815 0  0.9439480330938878 0.1
[...]
<PointData  Scalars="Temperature"> 
<DataArray  type="Float64"  Name="Temperature"  format="ascii">-1.8289031385446141e+38  1.0032071306546200e+34  2.9870304337787413e+34  -4.7688270482385054e+34  2.0734608724903277e+35  -1.6366005694079417e+36  4.7659753625303726e+36  -4.1466832201207699e+37  -5.6545031540775782e+38  4.6586522687055800e+38  6.9064490209768390e+40  8.3843292470420259e+41  6.5209497394816516e+42  4.2805435448899354e+43  -2.1831349330698569e+44  -9.1474808228113199e+44  8.5064552184264560e+44  -1.5771097430129847e+46  2.2803999840475690e+46  5.2785800677031075e+46  -1.1405333337234336e+48  -3.1192546781652187e+48  -1.8602013350742239e+48  -5.7399205225217233e+48  3.1277396789143935e+48  7.6070011388001353e+47  3.7364742396064311e+47  -9.5577281276121474e+46  7.6800558690242998e+46  1.8727947533734153e+48  -3.4302869872671144e+48  6.2585678201704338e+48  -1.1841288108031402e+50  6.9583020323639618e+50  7.6754713802744441e+51  -5.1704309558638215e+51  -2.0446134095680719e+53  -3.0138999802825256e+53  -1.2437040888224709e+54  3.1794805269107399e+54  -4.6734436442844342e+55  3.8277347729048166e+55  -9.7781068155875806e+53  -1.4744664578833920e+54  -9.9387425499516170e+54  3.1462393816193831e+53  3.2055629775614666e+54  -6.6467546498314224e+52  1.8366786190920066e+53  -8.3307107773315911e+51  1.2115530816850731e+52  -3.8472334206393517e+51  2.1594630077204009e+50  8.1752837583570127e+49  7.3017930088810964e+48  -1.9303784874736048e+48  7.3957138775053236e+46  -1.7595963383663656e+55  -5.1398829627850484e+55  -3.6819103318263910e+56  -2.4608859614379947e+57  -1.3331479465112581e+58  -1.1706542263360456e+59  -2.5872655339115073e+59  1.2975595026558390e+59  -2.3730614619468176e+61  1.2580532911648092e+62  -3.4911492413101073e+62  7.2136031981264404e+63  -2.8900160301946651e+64  -2.5063772214347701e+65  1.7078617265445111e+66  -5.5138781864377948e+66  3.7487435598598689e+67  -3.1976970245895945e+68  2.8756165084138390e+68  -9.7817248872844109e+69  -2.1053441781356012e+71  -3.8883492921538743e+71  -6.2087611898491974e+72  9.2274162860488897e+71  1.1220045376672048e+74  -2.1638623018733447e+74  -7.8235671547569081e+74  -5.3512999007330816e+71  2.8340316743828256e+72  -4.1065801879550927e+72  -3.9091902832747546e+72  -6.6804610850748634e+73  7.7707226778814359e+73  -3.7436216050045559e+74  2.3054618872433599e+74  -1.8031057121932799e+72  -2.9264750746562473e+73  -9.5500151878263688e+72  1.5718526847284893e+72  1.4812059537606934e+71  2.0829516807698261e+69  1.3278362634764668e+69  6.6094034412733389e+67  3.2177272068400482e+66  -2.3775746739617963e+66  9.0451142015303411e+64  4.0848295749248437e+64  -1.2432435092094832e+64  7.3085925087595646e+62  -3.4079938696926968e+62  2.7460909485671623e+61  -1.1642836273599595e+61  -3.4459022910455090e+59  1.0765919553271615e+59  6.4215053227685109e+58  1.4167505230008895e+57  -3.9604098147600180e+56  6.5026453994333758e+57  -8.3660264592012873e+57  -1.0740976690553246e+58  -4.2835116191426809e+57  5.3853719191353984e+57  3.8014923428662774e+57  -3.1649396730247501e+56  -1.0189723082905101e+56  1.8266276700176170e+55  -4.5936169353460285e+54  7.4962822800028454e+53  1.0859099536000450e+53  -2.4055979437503964e+52  3.8749739395592170e+51  4.9312623783822234e+49  -1.6990939772028823e+49  -1.7560253327367704e+48  2.9412015737600106e+45  -1.8466783774385981e+46  1.4316712498525032e+45  9.1210674590590853e+43  3.6210497784414756e+43  9.9006807030468457e+42  4.6067628537398880e+41  -7.0925253175612712e+41  -7.2990103095363232e+41  4.5467377041083138e+44  -6.5951298199359022e+44  -7.8057046520988172e+45  2.5479409821069768e+46  3.5896602967287826e+47  9.9521031521779542e+47  -8.3237434211948810e+48  -1.4835530825609281e+49  7.2201240312038274e+48  -3.4216167176596925e+49  -5.7432576535100826e+48  9.0906615824840109e+47  -6.7671782203797915e+47  2.4301934735998801e+47  9.8823540363304011e+46  -1.6794143667029416e+46  4.1498197722220032e+45  -1.1992376089955311e+45  3.7184415406028874e+44  4.2514604532504664e+43  -2.0880230026435061e+42  7.4973688537013558e+41  2.6888417860619589e+41  -4.3417252388202612e+39  6.0414217431359593e+39  8.1157923033725535e+38  7.0794682171913620e+62  -1.3076361321446321e+64  -3.2646106100697504e+62  -1.1955602709276243e+63  -2.1328316604138399e+61  1.0281760869104948e+61  -1.6208574059775954e+60  1.0597369206545527e+58  3.7706005561231320e+58  1.1887936327440791e+57  5.0342209759704162e+56  6.6566098770753075e+54  -1.4593292489600612e+55  -3.5646521444818390e+54  -6.9531901280465426e+52  -4.6278062733815758e+52  -3.5738287647834918e+51  2.7959611278725066e+51  2.0764048060199236e+50  -3.6960857855524076e+48  2.2737463839314611e+48  1.5431491918034554e+47  -1.0480197091743684e+46  3.6943839628918751e+45  5.7288972012951017e+45  8.8717573332140425e+46  -5.9656555183349884e+47  2.6870082962331000e+48  -2.0423596914890927e+49  2.6529856941947115e+49  1.3367657463750208e+50  1.4566120198558285e+52  -3.8654093104179095e+51  -1.6916762300084799e+54  7.4196379140364028e+54  2.6970201373322971e+55  -7.1900706758015522e+56  -2.8312978917140613e+57  -1.2732363844136694e+58  -1.4355734793401631e+58  -9.3908847026537634e+59  -1.4701256700475930e+60  -1.3937679357435537e+62  2.0477634166168155e+62  -6.5057422032998812e+63  6.2827837703751017e+63  2.2497483296773909e+64  3.5660738834205026e+64  1.8002590673563579e+63  1.2542511667743928e+65  -1.9991883936355264e+65  -1.5952798131797277e+64  2.5588969707225094e+36  1.8024688484879595e+52  5.9861586781938702e+76  -4.8422988433579818e+43  7.6342753281153572e+33  -5.4062942199888809e+49  1.1560015432321450e+74  9.8051343574361678e+42  4.2796919211031783e+60  -3.4961774748702145e+51  6.5340492307658911e+43  1.2057216006914171e+59  -2.1752065715175971e+68  -2.3674750201389456e+52  -1.7339656242825378e+37  1.7903367927093067e+50  5.7526152771928834e+76  -6.1791590893014175e+55  -1.3727256246555159e+54  -7.2825474849632455e+65  -1.2751053451760188e+45  1.4322333036446042e+54  -2.1382698978014873e+71  -8.8182815955571553e+48  -3.3444784084646714e+39  1.7091749358532269e+58  -6.6217845992612249e+46  -1.0084220649194984e+55  1.0872023407319332e+48  -3.4560696969149806e+55  -6.3666822251141088e+63  -5.1886151547497130e+42  -3.9474567067762749e+74  -1.9280585069720841e+56  1.2212329622888209e+67  7.0496378496139024e+49  3.8734420698556114e+60  -3.6862308356926557e+51  6.4472566825092198e+44  7.9172200606371940e+59  2.9073017466354118e+58  -1.3734042354337611e+66  -9.3481988136371726e+49  -1.8504446206572288e+49  -8.6921714220748153e+60  2.7219674772130864e+46  -6.0501082289918850e+45  3.8729590747600662e+52  -4.2592911924063166e+37  -6.3416063730658865e+75  1.3991711027184781e+52  -9.1900423378992937e+67  5.3986465945869680e+56  8.4238042587307115e+58  -2.5766922902667107e+50  -5.6395488585663248e+42  -2.6855656539984692e+53  -2.0815912809197197e+46  1.6263827132637405e+61  -1.1652829459849156e+48  1.8701476476910744e+62  -3.4134016775629926e+65  1.0120936351277584e+46  -2.5437234731942057e+49  -1.2053456336734955e+57  -1.5250011675945882e+59  4.5504985619240439e+44  7.9667050737475688e+52  5.9311875131388359e+52  -1.2466119517619334e+69  2.4494533374059593e+59  1.9641304144720447e+55  1.0519032234619123e+50  4.7547916697297865e+48  -4.6485122459586949e+65  1.1893894431876240e+64  4.4706414460391954e+56  -4.6070063437159117e+69  -4.3268219120834428e+56  3.5293206394975506e+64  2.5127797805776071e+47  2.6413443264067540e+48  -3.6143373485759897e+56  -5.1470199006604097e+56  3.0715304788548357e+53  -7.2506512688971605e+72  -9.5243931354249387e+72  1.9899205527413629e+60  1.2225642102315333e+40  6.7794409976779783e+44  2.2695500078558444e+55  -7.2384987059333485e+48  6.4709038661380825e+41  -1.0304861655189050e+48  -4.1162039150896684e+54  3.1232942066967158e+55  -5.8175787787699692e+74  3.1274928197851123e+38  4.8823647996544870e+51  -2.9312314591121294e+75  -2.2985685717680401e+36  -2.1654179580432761e+44  1.4752381926077061e+61  -2.2564466736570974e+70  3.2375963735242845e+51  -1.0306406699277557e+67  1.9456145514611731e+64  -2.0925526694044911e+55  4.5137352235144331e+41  -2.0399038176625167e+54  1.7344064450432796e+48  2.5111342363141781e+49  -3.3500830371577172e+47  6.4109911730016485e+39  -6.4766123945952481e+73  -7.8033793005338743e+50  5.3577856956847422e+42  2.0089767150923454e+61  -2.3544611644944583e+71  -8.1134341739200164e+44  -1.7699923111029784e+52  1.8458132691385384e+56  -1.2330396447069693e+58  7.8484945287232897e+56  3.2681131157133854e+51  -1.6754964984315890e+65  -1.2508514511219965e+48  -1.2171805065189950e+67  4.3530629800036048e+58  -5.9487712887390645e+58  1.5269771755905769e+55  -8.6479107625619795e+56  -8.2993802596418331e+70  -7.2964355707196748e+53  -7.5685895070579807e+50  2.7471810021850898e+47  -3.2188301312358343e+54  1.9284616298752671e+43  3.8163449651502278e+58  -4.6017113279669198e+62  3.1278451573044183e+51  -1.8129736647259897e+38  6.5608058911936473e+55  9.7991954078174157e+53  -4.5604812133188110e+45  2.9102193972604379e+61  -5.2672593941496684e+44  1.9999003167980301e+52  -8.0898350623096199e+57  9.5208128388488055e+74  -1.6761778787089264e+49  -5.1362801339548164e+59  -3.3745398537763878e+60  -3.3313956357259704e+50  -9.5070174777382989e+36  5.3999253726452675e+66  6.2070109129804324e+65  7.2270358210124830e+67  1.9927078231976347e+49  -5.2081944766931060e+44  -2.1778889731716076e+52  -1.1775907202065370e+45  -4.1368046929346087e+46  2.1235123274276263e+48  1.7626110070053321e+49  -9.8968800523042386e+61  -8.4756115786155080e+60  2.5508221351873128e+61  1.0597211959863917e+60  1.6372220197800052e+59  -7.2183097971751306e+77  2.7488491169135305e+44  -5.2594291594710488e+75  2.1738004579126982e+53  -3.2762277702245754e+37  -1.0196752089127408e+49  5.0780871864057723e+34  7.4264011204724215e+50  4.9432044223575474e+50  3.8490465077619214e+35  6.9328628443607359e+72  1.3062671163693155e+41  9.5784829954854326e+74  -7.5615888035208773e+43  5.1152573973136548e+43  2.4338152691160866e+45  -9.2137299862521478e+50  -3.7250787554127050e+51  5.0205490545194131e+46  6.8277962062227105e+59  -1.0802173473364328e+74  -1.3824611571971307e+53  -4.7712791187594730e+43  -2.3440374295184261e+69  -8.0177140347168284e+66  -3.6457508765262104e+59  -9.9295000493536718e+75  -4.0811465238689042e+62  5.7771469417646386e+52  -4.6499607022883175e+51  -1.9720103420022094e+44  -2.3471927580480846e+41  5.7875630249586348e+55  4.8254039851520136e+51  -3.8286632845624595e+57  1.5323960171892666e+60  -6.1917601669033541e+61  -4.1864445693476538e+65  -1.4655832140639784e+65  1.3871868175661720e+75  6.9598888429742912e+35  1.1606266189931849e+41  -1.4930222458848274e+70  -2.0468196043454052e+53  -1.7783074622745245e+44  -5.0815941883140085e+55  9.1761778273370209e+52  5.0431400683442638e+66  9.1596275616301320e+55  -7.7376328207877400e+59  3.4941497113676566e+49  -2.2824027316325614e+64  -6.6876045512953923e+57  5.4409445930343924e+34  6.5977357126800279e+49  4.9877273838044471e+73  -1.1459988338038308e+43  2.7858371450313858e+56  3.6696428264703989e+65  3.2002082886382421e+51  1.1867912422830998e+45  -1.4571504709427564e+45  2.4124313752344894e+52  -2.6830648265832498e+51  -3.2369266886677999e+55  -1.0019290940300863e+38  5.2862606223466462e+38  -6.0361137259247688e+36  -1.4342407214833763e+49  2.9072100940813174e+50  5.5030550047457632e+39  3.3863511217076765e+59  3.0403848521780250e+47  -2.7441346936046134e+48  6.4251485233873050e+54  7.8339709873260116e+56  -1.5062250803370487e+56  4.0558826958865608e+47  -1.4563531134920973e+64  3.0695530984272022e+76  4.1596939083918350e+65  -3.9440791744096987e+67  2.2639329644340147e+53  -1.9079056463406783e+59  3.1423262574015629e+59  -3.5880445013812401e+47  -8.0139941084816614e+47  -4.0113642329698607e+63  -3.4636288964087374e+62  1.4152424555710445e+47  9.5237169715147313e+46  1.2962167486762333e+57  -1.9254337728264529e+72  -7.3921256909115545e+57  2.2735471046358280e+54  1.3855405437633191e+47  -1.3130060804159906e+56  -9.7775823367093178e+42  1.3054262865597030e+53  -5.5540296540669844e+51  2.3692669812707994e+50  1.1622268336220621e+46  3.3741284159281931e+45  -1.8796137633918263e+52  9.0086363725332510e+62  -1.4659933210295451e+62  4.8164443924554569e+45  1.5066652417171124e+50  2.7352737310574333e+46  2.9571297549458107e+42  7.2775185583024796e+53  -8.5563791865627472e+49  5.0559524380310634e+61  6.2575777120321112e+64  -2.3887928459181682e+65  6.4473324519020819e+48  2.8131998088574864e+48  4.2853673867019941e+41  -1.3877472882335779e+67  -8.9013223911042660e+67  -1.4812064330396027e+68  8.8209086228318581e+50  -3.1379497893288032e+66  5.4177024213571398e+60  -2.9383633032976133e+49  -9.0664716553673614e+57  -4.2586442709445433e+58  -2.6942750557516447e+59  4.7504883440985698e+52  1.4838921169173750e+52  1.9436872302399044e+56  -1.4313227312162231e+56  -4.3765403088127263e+75  -1.3732546981051369e+41  -5.7500209374692339e+59  2.1860029055440539e+52  -1.4865986970843498e+72  1.4909199317269981e+72  -1.6281953725402010e+58  -4.6808432577431426e+57  2.4602483730768757e+55  -7.2175522300010768e+49  3.1525182282482217e+48  3.4506907673607117e+48  1.2366710833544135e+65  -2.1580576299950268e+64  1.2043556207489708e+57  6.3337197855375650e+53  5.2058594062001652e+50  -6.3792361599043082e+53  -1.3282862616500013e+56  2.0502657402719353e+66  -1.6158624514530889e+54  -6.0927107405760490e+46  3.0920490795220576e+54  1.4627145768248469e+72  1.0080648142811772e+48  5.9413747561064918e+33  -2.5640083609986260e+41  -2.8473100405794266e+51  -4.1348096655595486e+55  -4.6028203222793193e+47  1.0353745280576273e+58  -1.2517216764948534e+66  5.0533542941957356e+57  -4.2591949437014852e+48  4.9695248710609203e+47  6.2476110935350880e+45  -7.5629077974602079e+55  -8.0132916505302307e+71  -4.4340953979747360e+72  -5.3737975342939427e+73  -8.3848529299881501e+71  1.1083716868685185e+63  2.1719538671981192e+47  -1.2179136547499837e+50  -7.9570503427065774e+57  -5.4048963600709040e+57  -3.7574802186809706e+58  -5.1279387789770340e+63  -6.4187188748200166e+66  -9.8656505676664797e+48  -7.0769424371853155e+49  -4.7176693927983450e+41  7.2206588728428320e+46  -1.7004405251371362e+57  -4.9911574547583045e+40  -3.1561673961797530e+51  -2.5165357520297943e+55  -5.6679610696398171e+61  -6.8355806245417926e+37  -1.8926074059346037e+49  -2.0404692897309479e+69  -6.1507743220791014e+68  -6.5526069722678791e+74  -4.8827159493099747e+53  5.2608180468825750e+43  -3.4452909395026176e+53  -6.8190021164871986e+49  -1.1326407898384994e+49  -1.5532394030810763e+48  4.1566026077504705e+47  -2.5663234541008268e+63  6.7712810556531409e+36  1.6235309085396440e+73  -1.1402152081264765e+46  -1.3654719632388235e+57  -1.5267734771185844e+45  1.3617565195750921e+53  -2.0214039876083758e+68  -4.2665711341545155e+58  5.6023090726648559e+47  6.9673083147764338e+62  -5.3133520077733489e+41  -2.0385807979822739e+59  -1.2670000555601627e+76  -1.4131447105166686e+47  -1.6402972770986012e+56  6.2163816633013665e+45  -1.5971314040256319e+55  -4.1475045453934850e+48  -4.5829057994265059e+48  1.1025630171222034e+42  3.3473816582265688e+33  7.5021577918089762e+72  -8.2488949909084081e+51  -2.6622743120301400e+60  -1.2039107350171978e+73  2.7166711573674009e+56  6.9592820163547846e+47  2.4718539572777213e+55  -2.1243947458296498e+56  -5.4012160335824034e+63  -4.9695821814446119e+38  -1.0057367420010264e+49  6.1575095132776850e+46  -1.0680798884400036e+53  -7.9871782073417176e+56  4.7917055935650277e+55  -1.1229055602755870e+56  -4.6420753063059185e+45  -2.7893371448119248e+55  -3.7025199009067104e+45  7.6210413885993970e+61  -4.4267008996052850e+52  1.1406915034046063e+45  9.6660588087566260e+50  -1.3684337471671472e+70  7.5504904790454345e+43  -6.9388634913205082e+57  -4.6510556524741654e+70  -1.0005690092856183e+69  -8.8640711301340294e+68  1.0522244515168642e+58  2.5437304186927576e+58  -1.9032287277976267e+75  2.3643676870244552e+50  2.1764552703455518e+43  -8.8049042905880026e+53  1.0602612206605980e+60  6.7776933832875131e+65  -1.2007147670131864e+52  -3.0383579962746001e+47  -3.6317045168172972e+76  1.1238976250389205e+46  4.6888316793002507e+52  3.3094119413903813e+47  1.4859465760635418e+57  -2.0158357238080362e+46  6.1883104535977215e+49  -1.6604193775535298e+42  -1.9185573256496259e+53  -4.3592386726248516e+46  3.5290186973028357e+46  1.4228682168063180e+55  4.7587702819083313e+53  -3.1355665240040598e+54  5.9925603166832072e+74  -5.0601615665076480e+37  -5.5303228581093857e+53  -3.8243195953792952e+44  3.2980530543181250e+60  1.4776302060901880e+53  1.9226684223614759e+54  -5.0116374964589021e+55  1.1190068125434182e+52  6.8785989605393318e+44  4.4303127458748778e+45  -9.2381087720351007e+57  -2.7138534485789792e+44  7.8660584694066900e+49  2.8542290506989727e+71  -5.8503117937029506e+50  -2.2998491852914383e+58  -3.1755816567309320e+40  -1.2359156155517040e+57  -5.3227911629852770e+42  -3.9693558936671556e+41  1.4470878578519762e+74  3.2120284666408214e+74  6.7239793185669093e+37  -1.2125989430056278e+39  -1.5723082639418204e+49  6.3851314394918131e+57  -2.2566742900857317e+62  -9.8803468691408433e+60  2.8093258882580344e+59  -3.0695820157544181e+60  -1.0730929819454563e+57  2.1903339918472491e+77  -4.9680775220222712e+61  1.1349730051446507e+57  -1.2902375568145267e+46  4.3888539257619532e+47  2.0141615553317676e+60  4.0764339778245894e+63  3.2411039150433980e+60  1.2914332190516348e+58  3.4762574207603477e+67  5.5697846446472580e+45  -6.7299203844947636e+48  -5.1466327662797808e+45  -9.1193620869120139e+49  -3.6352250763411214e+51  1.6037002704199507e+44  -5.8478382735461936e+75  1.1127311030800964e+36  4.9132426635028675e+36  2.8775364180890105e+37  -7.3849320306375966e+74  2.5992634186762213e+74  -7.1527763359420662e+70  -7.6942194275542074e+51  -6.5545898787462489e+69  6.8244759215979718e+49  1.1711961535790452e+68  1.6313054274505739e+52  -1.9665210670134113e+51  -1.1341966936317943e+45  3.3842923773559648e+43  -1.4494414437852261e+44  -1.0600520170758253e+60  -7.4127053196155822e+36  1.4291255299376158e+44  2.8584881299898828e+50  -2.4461867352414377e+74  6.9007378071507095e+51  -4.1056100719123002e+57  7.7666955194692869e+54  -7.9567476937548523e+43  -1.3719219444889735e+52  1.6921678877964025e+54  -2.9434673306926510e+44  4.8600305088013369e+64  -4.3736632034030658e+69  -1.4437600198945405e+69  -1.0588524270024237e+71  2.5259273738933552e+44  1.7605751121554581e+60  7.5005164722097691e+39  -4.2423938703907460e+70  3.9951033112488013e+47  6.4054899348644140e+53  -4.5563943863642978e+50  -1.6395491582190829e+52  -3.4034301352706026e+76  -2.5076342732972062e+59  4.4321590559530535e+38  -8.8730855940938206e+68  -1.0275278947443691e+48  1.6286639476435937e+65  1.5229764844294767e+48  -4.7546029474692604e+53  -8.3490938435048158e+64  2.2433453853908653e+60  -5.4292504005802795e+62  -1.6567540859102941e+61  3.6362566613189276e+42  7.1146673154642748e+47  -7.7008716443829650e+54  -3.0610138394819478e+60  -9.6958116873641713e+58  -1.1269375158250092e+59  1.1937530001771001e+59  -4.9657889837698059e+60  5.0598808374406202e+49  2.9022444425732108e+48  2.6208669913121937e+55  9.4890858805473126e+54  5.8164066413339186e+44  -1.0261792491641090e+56  8.2885175052886048e+44  1.0465406068784165e+52  3.7786067908134555e+49  1.3280204843003268e+50  1.0771585730236021e+50  2.6721053984248105e+53  -3.5807716111169332e+57  -1.8739739503470355e+66  5.0841831274773352e+65  -2.8766118346336251e+67  -7.6836296811232642e+58  -2.7308755264174177e+74  1.9379030244259256e+53  3.2639073990580338e+57  1.4829476102282638e+40  5.2316663132915229e+38  -4.8382020420195507e+41  -3.8835946649092239e+55  5.4541003949680212e+54  -6.0546192212772758e+54  1.4695315732541317e+61  -6.0849182770461673e+63  3.6170358695465331e+42  -1.9934553209470123e+48  7.7807633587720452e+73  1.4981934329021707e+52  -9.4011589445989318e+50  3.9949230045340237e+56  6.7452394189492906e+43  -1.7458895376588670e+64  -2.5057232823130430e+49  3.1427882439314102e+65  2.235533822156