<?xml version="1.0"?>
<VTKFile type="UnstructuredGrid"  version="0.1"  >
<UnstructuredGrid>
<Piece  NumberOfPoints="2331" NumberOfCells="4248">
<Points>
<DataArray  type="Float64"  NumberOfComponents="3"  format="ascii">0 0.3 0  0 0 0  0.04999999999999999 0 0  0.0514582251803892 0.02410733605106462 0  0.0558116365147896 0.04786313285751154 0  0.06299675146291706 0.07092097740850717 0  0.07290879486935808 0.09294463440875382 0  0.08540322682126872 0.1136129493462312 0  0.1002978503657798 0.132624531648159 0  0.117375468351841 0.1497021496342203 0  0.1363870506537689 0.1645967731787313 0  0.1570553655912463 0.177091205130642 0  0.1790790225914929 0.187003248537083 0  0.2021368671424885 0.1941883634852104 0  0.2258926639489354 0.1985417748196108 0  0.25 0.2 0  0.2741073360510646 0.1985417748196108 0  0.2978631328575116 0.1941883634852104 0  0.3209209774085071 0.187003248537083 0  0.3429446344087537 0.177091205130642 0  0.3636129493462312 0.1645967731787313 0  0.3826245316481591 0.1497021496342202 0  0.3997021496342202 0.132624531648159 0  0.4145967731787313 0.1136129493462312 0  0.427091205130642 0.09294463440875371 0  0.4370032485370829 0.07092097740850713 0  0.4441883634852104 0.04786313285751155 0  0.4485417748196108 0.02410733605106461 0  0.45 0 0  0.55 0 0  0.5514582251803892 0.02410733605106462 0  0.5558116365147896 0.04786313285751154 0  0.5629967514629171 0.07092097740850717 0  0.5729087948693581 0.09294463440875382 0  0.5854032268212688 0.1136129493462312 0  0.6002978503657798 0.132624531648159 0  0.617375468351841 0.1497021496342203 0  0.6363870506537689 0.1645967731787313 0  0.6570553655912463 0.177091205130642 0  0.6790790225914929 0.187003248537083 0  0.7021368671424885 0.1941883634852104 0  0.7258926639489354 0.1985417748196108 0  0.75 0.2 0  0.7741073360510646 0.1985417748196108 0  0.7978631328575116 0.1941883634852104 0  0.8209209774085071 0.187003248537083 0  0.8429446344087537 0.177091205130642 0  0.8636129493462312 0.1645967731787313 0  0.8826245316481591 0.1497021496342202 0  0.8997021496342202 0.132624531648159 0  0.9145967731787312 0.1136129493462312 0  0.927091205130642 0.09294463440875371 0  0.9370032485370829 0.07092097740850713 0  0.9441883634852104 0.04786313285751155 0  0.9485417748196108 0.02410733605106461 0  0.95 0 0  1 0 0  1 0.3 0  0.9758926639489353 0.3014582251803892 0  0.9521368671424885 0.3058116365147896 0  0.9290790225914928 0.3129967514629171 0  0.9070553655912461 0.3229087948693581 0  0.8863870506537688 0.3354032268212687 0  0.867375468351841 0.3502978503657798 0  0.8502978503657798 0.367375468351841 0  0.8354032268212687 0.3863870506537689 0  0.822908794869358 0.4070553655912464 0  0.8129967514629171 0.4290790225914929 0  0.8058116365147896 0.4521368671424885 0  0.8014582251803892 0.4758926639489354 0  0.8 0.4999999999999999 0  0.8014582251803892 0.5241073360510646 0  0.8058116365147896 0.5478631328575115 0  0.8129967514629171 0.5709209774085071 0  0.8229087948693581 0.5929446344087538 0  0.8354032268212688 0.6136129493462312 0  0.8502978503657798 0.632624531648159 0  0.867375468351841 0.6497021496342202 0  0.8863870506537689 0.6645967731787313 0  0.9070553655912463 0.677091205130642 0  0.9290790225914929 0.6870032485370829 0  0.9521368671424885 0.6941883634852104 0  0.9758926639489354 0.6985417748196108 0  1 0.7 0  1 1 0  0.95 1 0  0.9485417748196108 0.9758926639489353 0  0.9441883634852104 0.9521368671424885 0  0.9370032485370829 0.9290790225914928 0  0.927091205130642 0.9070553655912463 0  0.9145967731787312 0.8863870506537688 0  0.8997021496342201 0.8673754683518409 0  0.882624531648159 0.8502978503657798 0  0.863612949346231 0.8354032268212686 0  0.8429446344087537 0.822908794869358 0  0.8209209774085071 0.8129967514629171 0  0.7978631328575114 0.8058116365147896 0  0.7741073360510646 0.8014582251803892 0  0.75 0.8 0  0.7258926639489353 0.8014582251803892 0  0.7021368671424885 0.8058116365147896 0  0.6790790225914928 0.8129967514629171 0  0.6570553655912461 0.8229087948693581 0  0.6363870506537688 0.8354032268212688 0  0.617375468351841 0.8502978503657798 0  0.6002978503657798 0.867375468351841 0  0.5854032268212687 0.8863870506537689 0  0.572908794869358 0.9070553655912463 0  0.5629967514629171 0.9290790225914929 0  0.5558116365147896 0.9521368671424885 0  0.5514582251803892 0.9758926639489355 0  0.55 0.9999999999999999 0  0.45 0.9999999999999999 0  0.4485417748196108 0.9758926639489353 0  0.4441883634852104 0.9521368671424885 0  0.4370032485370829 0.9290790225914928 0  0.427091205130642 0.9070553655912463 0  0.4145967731787313 0.8863870506537688 0  0.3997021496342201 0.8673754683518409 0  0.382624531648159 0.8502978503657798 0  0.363612949346231 0.8354032268212686 0  0.3429446344087536 0.822908794869358 0  0.3209209774085071 0.8129967514629171 0  0.2978631328575115 0.8058116365147896 0  0.2741073360510646 0.8014582251803892 0  0.25 0.8 0  0.2258926639489353 0.8014582251803892 0  0.2021368671424885 0.8058116365147896 0  0.1790790225914928 0.8129967514629171 0  0.1570553655912462 0.8229087948693581 0  0.1363870506537688 0.8354032268212688 0  0.117375468351841 0.8502978503657798 0  0.1002978503657797 0.867375468351841 0  0.08540322682126869 0.8863870506537689 0  0.07290879486935797 0.9070553655912463 0  0.06299675146291703 0.9290790225914929 0  0.05581163651478957 0.9521368671424885 0  0.0514582251803892 0.9758926639489355 0  0.04999999999999999 0.9999999999999999 0  0 1 0  -0 0.7000000000000001 0  0.0241073360510646 0.6985417748196108 0  0.04786313285751161 0.6941883634852104 0  0.07092097740850711 0.6870032485370829 0  0.09294463440875372 0.677091205130642 0  0.1136129493462312 0.6645967731787312 0  0.1326245316481591 0.6497021496342202 0  0.1497021496342202 0.632624531648159 0  0.1645967731787313 0.6136129493462312 0  0.177091205130642 0.5929446344087537 0  0.187003248537083 0.5709209774085071 0  0.1941883634852104 0.5478631328575115 0  0.1985417748196108 0.5241073360510646 0  0.2 0.5 0  0.1985417748196108 0.4758926639489353 0  0.1941883634852104 0.4521368671424885 0  0.1870032485370829 0.4290790225914928 0  0.177091205130642 0.4070553655912463 0  0.1645967731787313 0.3863870506537688 0  0.1497021496342202 0.3673754683518409 0  0.132624531648159 0.3502978503657798 0  0.113612949346231 0.3354032268212686 0  0.09294463440875361 0.322908794869358 0  0.07092097740850711 0.3129967514629171 0  0.04786313285751148 0.3058116365147896 0  0.02410733605106464 0.3014582251803892 0  0.6985417748196108 0.5241073360510646 0  0.7 0.5 0  0.6985417748196108 0.4758926639489353 0  0.6941883634852104 0.4521368671424885 0  0.6870032485370829 0.4290790225914928 0  0.677091205130642 0.4070553655912463 0  0.6645967731787312 0.3863870506537688 0  0.6497021496342201 0.3673754683518409 0  0.632624531648159 0.3502978503657798 0  0.613612949346231 0.3354032268212686 0  0.5929446344087537 0.322908794869358 0  0.5709209774085071 0.3129967514629171 0  0.5478631328575114 0.3058116365147896 0  0.5241073360510646 0.3014582251803892 0  0.4999999999999999 0.3 0  0.4758926639489353 0.3014582251803892 0  0.4521368671424885 0.3058116365147896 0  0.4290790225914928 0.3129967514629171 0  0.4070553655912462 0.3229087948693581 0  0.3863870506537688 0.3354032268212687 0  0.367375468351841 0.3502978503657798 0  0.3502978503657798 0.367375468351841 0  0.3354032268212687 0.3863870506537689 0  0.322908794869358 0.4070553655912464 0  0.3129967514629171 0.4290790225914929 0  0.3058116365147896 0.4521368671424885 0  0.3014582251803892 0.4758926639489354 0  0.3 0.4999999999999999 0  0.3014582251803892 0.5241073360510646 0  0.3058116365147896 0.5478631328575115 0  0.3129967514629171 0.5709209774085071 0  0.3229087948693581 0.5929446344087538 0  0.3354032268212687 0.6136129493462312 0  0.3502978503657798 0.632624531648159 0  0.367375468351841 0.6497021496342202 0  0.3863870506537689 0.6645967731787313 0  0.4070553655912463 0.677091205130642 0  0.4290790225914929 0.6870032485370829 0  0.4521368671424885 0.6941883634852104 0  0.4758926639489354 0.6985417748196108 0  0.4999999999999999 0.7 0  0.5241073360510646 0.6985417748196108 0  0.5478631328575116 0.6941883634852104 0  0.5709209774085071 0.6870032485370829 0  0.5929446344087537 0.677091205130642 0  0.6136129493462312 0.6645967731787312 0  0.6326245316481591 0.6497021496342202 0  0.6497021496342202 0.632624531648159 0  0.6645967731787312 0.6136129493462312 0  0.677091205130642 0.5929446344087537 0  0.6870032485370829 0.5709209774085071 0  0.6941883634852104 0.5478631328575115 0  0 0.15 0  1 0.15 0  1 0.85 0  0 0.8500000000000001 0  0 0.075 0  1 0.075 0  1 0.925 0  0 0.925 0  0.5 0.8127595604293815 0  0.5069440078039168 0.190422209288238 0  0.25 0.3127595604293815 0  0.756944007803917 0.3095777907117619 0  0.756944007803917 0.6904222092882382 0  0.25 0.6872404395706185 0  0 0.225 0  0.4255768646051012 0.2241073097134061 0  1 0.7749999999999999 0  0.6773391559270888 0.2766774022734219 0  1 0.225 0  0.6755768646051011 0.7241073097134062 0  0 0.7750000000000001 0  0.5818971135297744 0.2287925518358889 0  0.8318971135297746 0.728792551835889 0  0.1659156081861886 0.7301636995921477 0  0.08376842746533225 0.2299656297760495 0  0.4236002201977974 0.7746535834185855 0  0.0840843918138115 0.7698363004078523 0  0.3340843918138113 0.7301636995921477 0  0.3340843918138114 0.2698363004078523 0  0.9159156081861887 0.2301636995921477 0  0.5840843918138116 0.7698363004078522 0  0.1659156081861887 0.2698363004078523 0  0.9162315725346678 0.7700343702239506 0  0.8340843918138114 0.2698363004078523 0  0.75 0.6146645247768686 0  0.5 0.1125158665330878 0  0.75 0.3874841334669124 0  0.2504983345544904 0.6122915843562002 0  0.2504983345544902 0.3877084156437999 0  0.5 0.8879783056303169 0  0.7005361650220154 0.3333055947145943 0  0.70416808765371 0.6599554817221275 0  0.449930214263529 0.1678187287522426 0  0.2247310981387008 0.7415600637745463 0  0.5155081196221678 0.7563797802146907 0  0.2752689018612993 0.2584399362254537 0  0.05605196690611226 0.8246131191226815 0  0.9439480330938878 0.1
[...]
<PointData  Scalars="Temperature"> 
<DataArray  type="Float64"  Name="Temperature"  format="ascii">-3.7775269762643152e+25  2.0720845839021428e+21  6.1695930225702438e+21  -9.8498233395756201e+21  4.2826512869859669e+22  -3.3803336382416200e+23  9.8439332957219093e+23  -8.5648099103235680e+24  -1.1679152247995669e+26  9.6222616972893234e+25  1.4264996837227430e+28  1.7317499894382996e+29  1.3468763343780977e+30  8.8412931079353366e+30  -4.5091787141110996e+31  -1.8893759240048024e+32  1.7569746249963148e+32  -3.2574576931951043e+33  4.7100758235164711e+33  1.0902698006187039e+34  -2.3557264158327305e+35  -6.4426969609688430e+35  -3.8421721612428421e+35  -1.1855578438502437e+36  6.4602223938625474e+35  1.5711959482533247e+35  7.7175395124872323e+34  -1.9741108795179834e+34  1.5862851133572291e+34  3.8681833678212419e+35  -7.0851218731253008e+35  1.2926823884334877e+36  -2.4457711466011161e+37  1.4372097177965690e+38  1.5853382053685019e+39  -1.0679320300270363e+39  -4.2230679951817117e+40  -6.2250910063720744e+40  -2.5688215231320243e+41  6.5670910655607654e+41  -9.6528126975516045e+42  7.9060345285093733e+42  -2.0196292244359966e+41  -3.0454520542206889e+41  -2.0528078989718675e+42  6.4984327968894566e+40  6.6209633340607936e+41  -1.3728608402044217e+40  3.7935869232905776e+40  -1.7206753069420569e+39  2.5024148916292486e+39  -7.9463082129191912e+38  4.4602852901220957e+37  1.6885724719344262e+37  1.5081564181740097e+36  -3.9871202892869617e+35  1.5275554014982123e+34  -3.6343765262518308e+42  -1.0616224630798413e+43  -7.6048399226480920e+43  -5.0828624594300158e+44  -2.7535642676545129e+45  -2.4179399262124249e+46  -5.3438944595431290e+46  2.6800577467930131e+46  -4.9014644351099063e+48  2.5984592320919293e+49  -7.2108304476464113e+49  1.4899411621477936e+51  -5.9692136154264224e+51  -5.1768228547076019e+52  3.5275207351249496e+53  -1.1388696948532233e+54  7.7428813073920383e+54  -6.6047165198260326e+55  5.9394719736598377e+55  -2.0203765228112124e+57  -4.3485049916623739e+58  -8.0312314166282436e+58  -1.2823950262615886e+60  1.9058862772529673e+59  2.3174559216414372e+61  -4.4693718579063703e+61  -1.6159268008707972e+62  -1.1052897940339237e+59  5.8535801464520595e+59  -8.4819786861634700e+59  -8.0742776581224200e+59  -1.3798227708677845e+61  1.6050119835282847e+61  -7.7323021125569654e+61  4.7618401916797553e+61  -3.7242434141627404e+59  -6.0445183273490217e+60  -1.9725178023618936e+60  3.2465994475794882e+59  3.0593722159539233e+58  4.3022541754860623e+56  2.7425931967812522e+56  1.3651460960525385e+55  6.6460880677204419e+53  -4.9107862957250792e+53  1.8682325039292159e+52  8.4370536566523844e+51  -2.5678702141883621e+51  1.5095608279360518e+50  -7.0390763219708418e+49  5.6719420612633175e+48  -2.4047817064139268e+48  -7.1173746644417190e+46  2.2236580319468256e+46  1.3263364840789875e+46  2.9262420772765669e+44  -8.1800695712201934e+43  1.3430956454581737e+45  -1.7279696211206937e+45  -2.2185061824694985e+45  -8.8474235477169577e+44  1.1123272344504207e+45  7.8518318289217967e+44  -6.5370575079301720e+43  -2.1046469337336187e+43  3.7728270861699554e+42  -9.4879337927665273e+41  1.5483274066081527e+41  2.2429039882245417e+40  -4.9686672492641752e+39  8.0036051557407632e+38  1.0185327078720940e+37  -3.5094112962153095e+36  -3.6270007555978826e+35  6.0749353278226801e+32  -3.8142410279909744e+33  2.9570602474680871e+32  1.8839203483646745e+31  7.4791348607688496e+30  2.0449463752848561e+30  9.5150861664018227e+28  -1.4649330055962254e+29  -1.5075816626486824e+29  9.3911065978786063e+31  -1.3621979361136836e+32  -1.6122373717133733e+33  5.2626711557276294e+33  7.4143011298611316e+34  2.0555674784304712e+35  -1.7192362271349043e+36  -3.0642201175036563e+36  1.4912880143860767e+36  -7.0672137747447752e+36  -1.1862471150350459e+36  1.8776401350183071e+35  -1.3977338516142163e+35  5.0194683417571994e+34  2.0411610748800898e+34  -3.4687638403828281e+33  8.5712883344266179e+32  -2.4769777706961054e+32  7.6802936871042085e+31  8.7812231343507077e+30  -4.3127287899035116e+29  1.5485518341008590e+29  5.5536961841722029e+28  -8.9676614728883863e+26  1.2478317264984660e+27  1.6762847475971059e+26  1.4622361132436301e+50  -2.7008706257921754e+51  -6.7429238796925513e+49  -2.4693823746034277e+50  -4.4052792973253038e+48  2.1236569738433513e+48  -3.3478167578795407e+47  2.1888446255832966e+45  7.7880260672563071e+45  2.4554061515119727e+44  1.0397983983086688e+44  1.3748963983477798e+42  -3.0141867488865343e+42  -7.3626477821532212e+41  -1.4361538742118469e+40  -9.5585505159860360e+39  -7.3816017278323944e+38  5.7749469408913354e+38  4.2887318650603267e+37  -7.6341187607244792e+35  4.6963330760750454e+35  3.1873135201007918e+34  -2.1646431894765306e+33  7.6306037134409100e+32  1.1832810205224208e+33  1.8324263295734627e+34  -1.2321825129319600e+35  5.5499091835688019e+35  -4.2184130297760243e+36  5.4796368469455941e+36  2.7610366899452871e+37  3.0085744198212640e+39  -7.9838497931780588e+38  -3.4940902332571925e+41  1.5324968164628791e+42  5.5705882447158866e+42  -1.4850806128913438e+44  -5.8479336266550392e+44  -2.6298193096826292e+45  -2.9651201478783195e+45  -1.9396500310832164e+47  -3.0364863289165691e+47  -2.8787724538070493e+49  4.2295742099457831e+49  -1.3437352780280655e+51  1.2976840970109461e+51  4.6467660457539282e+51  7.3655843276054096e+51  3.7183637820286694e+50  2.5906060947938335e+52  -4.1292444243943677e+52  -3.2949872532734410e+51  5.2853003161651586e+23  3.7229279974103126e+39  1.2364173593726046e+64  -1.0001576421632903e+31  1.5768293240032151e+21  -1.1166486528029782e+37  2.3876753897626234e+61  2.0252116561288087e+30  8.8395341127428928e+47  -7.2212160648592610e+38  1.3495819824060571e+31  2.4903701986650090e+46  -4.4928029974260313e+55  -4.8899258608760854e+39  -3.5814373017341103e+24  3.6978697168400989e+37  1.1881798951342433e+64  -1.2762808296693187e+43  -2.8353103938965069e+41  -1.5041813314545512e+53  -2.6336795740939298e+32  2.9582211473085492e+41  -4.4165117612006327e+58  -1.8213811278174539e+36  -6.9078876531222127e+26  3.5302331169261529e+45  -1.3677033751840046e+34  -2.0828558240240750e+42  2.2455733626444292e+35  -7.1383750384588726e+42  -1.3150129904533654e+51  -1.0716879042658335e+30  -8.1533154398483080e+61  -3.9823284614727368e+43  2.5224083015245210e+54  1.4560747690007223e+37  8.0004411395566359e+47  -7.6137637522167126e+38  1.3316553254132085e+32  1.6352704375518442e+47  6.0049165779194959e+45  -2.8367120375741709e+53  -1.9308334298172579e+37  -3.8220200541527932e+36  -1.7953335711004547e+48  5.6221159868908589e+33  -1.2496258857384004e+33  7.9994435323218544e+39  -8.7973972158434936e+24  -1.3098336725568300e+63  2.8899324811342923e+39  -1.8981668363285393e+55  1.1150690660741235e+44  1.7399033967128357e+46  -5.3220558436792927e+37  -1.1648264743067589e+30  -5.5469294631869018e+40  -4.2994443234911606e+33  3.3592290611807476e+48  -2.4068457594433641e+35  3.8627158759058283e+49  -7.0502459348836105e+52  2.0904393068311568e+33  -5.2539600581550657e+36  -2.4895936536843397e+44  -3.1498294950750276e+46  9.3988745007015511e+31  1.6454913709629915e+40  1.2250632830119905e+40  -2.5748275988314870e+56  5.0592488274227628e+46  4.0568335573384248e+42  2.1726644343826908e+37  9.8208338213111708e+35  -9.6013178820271265e+52  2.4566367743786502e+51  9.2339327915732471e+43  -9.5155890853008722e+56  -8.9368792419446205e+43  7.2896719583507675e+51  5.1900470869643454e+34  5.4555920629805581e+35  -7.4652706028107413e+43  -1.0630965693232945e+44  6.3441245180022643e+40  -1.4975932943906373e+60  -1.9672256689463052e+60  4.1101020661952947e+47  2.5251579414096065e+27  1.4002666796832024e+32  4.6876656275403735e+42  -1.4950832306557679e+36  1.3365395575077534e+29  -2.1284283496897040e+35  -8.5018561132928243e+41  6.4510404471150116e+42  -1.2015978490164439e+62  6.4597125161109501e+25  1.0084331067054073e+39  -6.0543424510070218e+62  -4.7476023216607677e+23  -4.4725850040943073e+31  3.0470460417196480e+48  -4.6606012098729941e+57  6.6871270443419125e+38  -2.1287474724251181e+54  4.0185897758399349e+51  -4.3220846371446870e+42  9.3229412816846239e+28  -4.2133405196826015e+41  3.5823477995512533e+35  5.1866482804804251e+36  -6.9194637916468633e+34  1.3241648280989771e+27  -1.3377186314448727e+61  -1.6117570795600775e+38  1.1066294092860991e+30  4.1494618145755096e+48  -4.8630462576176138e+58  -1.6757976853009783e+32  -3.6558489960778267e+39  3.8124541810705336e+43  -2.5467945363090732e+45  1.6210754512077612e+44  6.7501581663393107e+38  -3.4606716386841181e+52  -2.5835841168017332e+35  -2.5140381146797348e+54  8.9910791281306194e+45  -1.2286951421998577e+46  3.1539108613064361e+42  -1.7861917072273390e+44  -1.7142041126366453e+58  -1.5070498605465466e+41  -1.5632621778939033e+38  5.6741935238260562e+34  -6.6483661143649615e+41  3.9831610958585286e+30  7.8825093318269136e+45  -9.5046524400461151e+49  6.4604402552983521e+38  -3.7446252791763834e+25  1.3551084646144726e+43  2.0239849896136356e+41  -9.4194932716706777e+32  6.0109428696957330e+48  -1.0879315603458147e+32  4.1307148734819740e+39  -1.6709233822914101e+45  1.9664861728727111e+62  -3.4620790026524407e+36  -1.0608783130584287e+47  -6.9699783774570660e+47  -6.8808657043359631e+37  -1.9636367956889814e+24  1.1153331926158749e+54  1.2820335135084861e+53  1.4927156171883389e+55  4.1158590628983239e+36  -1.0757319356450582e+32  -4.4983433917725808e+39  -2.4322669794960066e+32  -8.5444062037821811e+33  4.3860305842501001e+35  3.6406032048922624e+36  -2.0441613659311527e+49  -1.7506039933878718e+48  5.2686220632712481e+48  2.1888121469041997e+47  3.3816172193648591e+46  -1.4909132915349743e+65  5.6776389487112806e+31  -1.0863142563943011e+63  4.4898987254816347e+40  -6.7669186637506125e+24  -2.1060987471217375e+36  1.0488587902875452e+22  1.5338937299581729e+38  1.0209992897439141e+38  7.9500530725410755e+22  1.4319553542979650e+60  2.6980429779451304e+28  1.9783977152518079e+62  -1.5618162103132898e+31  1.0565361500918297e+31  5.0269490169097638e+32  -1.9030594262515086e+38  -7.6940025913446064e+38  1.0369745170975720e+34  1.4102542564373315e+47  -2.2311461355133435e+61  -2.8554187506646570e+40  -9.8548879940920443e+30  -4.8415164459859677e+56  -1.6560270697669222e+54  -7.5301540002694055e+46  -2.0508988970897488e+63  -8.4294464606092692e+49  1.1932468132634454e+40  -9.6043096111918932e+38  -4.0731092354696799e+31  -4.8480336520580382e+28  1.1953982139813471e+43  9.9666807613389498e+38  -7.9079523325529935e+44  3.1651032639480763e+47  -1.2788835323257690e+49  -8.6469354019101436e+52  -3.0271040660427926e+52  2.8651794149384979e+62  1.4375374672416028e+23  2.3972283005135435e+28  -3.0837782992054675e+57  -4.2276248030905643e+40  -3.6730236113979224e+31  -1.0495831476378649e+43  1.8953031765994981e+40  1.0416406015033564e+54  1.8918847847856010e+43  -1.5981774046390130e+47  7.2170277996794502e+36  -4.7142124193096068e+51  -1.3812982255150753e+45  1.1238055500797381e+22  1.3627361729361063e+37  1.0301953310423423e+61  -2.3670151897198531e+30  5.7540362554189412e+43  7.5795018763420292e+52  6.6099034362287607e+38  2.4512702933443387e+32  -3.0096865692093274e+32  4.9827814312717390e+39  -5.5417641032370493e+38  -6.6857438368020055e+42  -2.0694448498866443e+25  1.0918561887519599e+26  -1.2467353765724825e+24  -2.9623673893258416e+36  6.0047272732000870e+37  1.1366342095533770e+27  6.9943740834373207e+46  6.2797944600102479e+34  -5.6679014941399331e+35  1.3270889727333849e+42  1.6180756712706286e+44  -3.1110482307044686e+43  8.3772650247991208e+34  -3.0080396589842200e+51  6.3400403170676561e+63  8.5916829714977066e+52  -8.1463392805542259e+54  4.6760638468852924e+40  -3.9407035262425859e+46  6.4903503938453636e+46  -7.4109637685844170e+34  -1.6552587337404389e+35  -8.2853139033507045e+50  -7.1539882655373290e+49  2.9231272237459646e+34  1.9670860099694502e+34  2.6772843416445583e+44  -3.9769071770800389e+59  -1.5268142757727365e+45  4.6959214725848390e+41  2.8617791016198126e+34  -2.7119620412032570e+43  -2.0195208954016352e+30  2.6963062772850774e+40  -1.1471628214223280e+39  4.8936270856010603e+37  2.4005334804331306e+33  6.9691285688817209e+32  -3.8822677628627700e+39  1.8606981528655762e+50  -3.0279511257327950e+49  9.9481750775800100e+32  3.1119573665969371e+37  5.6495995270470915e+33  6.1078343550282039e+29  1.5031426265760744e+41  -1.7672862228290630e+37  1.0442869457028778e+49  1.2924778855200665e+52  -4.9339569854660925e+52  1.3316709752811485e+36  5.8105527535139833e+35  8.8512565620900596e+28  -2.8663370448976328e+54  -1.8385328751515821e+55  -3.0593732058855213e+55  1.8219237298934172e+38  -6.4813109724253893e+53  1.1190049715992541e+48  -6.0690729926269854e+36  -1.8726438014065646e+45  -8.7960610251935462e+45  -5.5649183874641720e+46  9.8119454727064984e+39  3.0649203795352323e+39  4.0146089702128781e+43  -2.9563403960322382e+43  -9.0395706206749954e+62  -2.8364031741461762e+28  -1.1876440445424243e+47  4.5151023976349236e+39  -3.0705107136424302e+59  3.0794360526006821e+59  -3.3629730371033880e+45  -9.6680963059970729e+44  5.0815455459297304e+42  -1.4907568190364603e+37  6.5114015058496984e+35  7.1272650725637613e+35  2.5542951289671836e+52  -4.4573825381077538e+51  2.4875488212104957e+44  1.3082047291474719e+41  1.0752496360856744e+38  -1.3176059559488423e+41  -2.7435226501809354e+43  4.2347426603198501e+53  -3.3374998771963265e+41  -1.2584252657260075e+34  6.3865048747866654e+41  3.0211790094733314e+59  2.0821179369839692e+35  1.2271674176877431e+21  -5.2958576902804588e+28  -5.8810060857767167e+38  -8.5402855537767930e+42  -9.5069430238628733e+34  2.1385250688491841e+45  -2.5853815328332897e+53  1.0437503093868643e+45  -8.7971984179568129e+35  1.0264356741488040e+35  1.2904193199546697e+33  -1.5620886432859466e+43  -1.6551136438335244e+59  -9.1584483771557407e+59  -1.1099365911161276e+61  -1.7318581540761222e+59  2.2892978084149454e+50  4.4860846655178699e+34  -2.5155524033054178e+37  -1.6434972245160254e+45  -1.1163599303748769e+45  -7.7609265300632215e+45  -1.0591554392340479e+51  -1.3257609542944091e+54  -2.0377110396023458e+36  -1.4617144233898903e+37  -9.7441592289976060e+28  1.4913984838077134e+34  -3.5121925376267699e+44  -1.0309037986088101e+28  -6.5189387176416930e+38  -5.1978048971969914e+42  -1.1706949039421771e+49  -1.4118620972012913e+25  -3.9091056167604601e+36  -4.2145084798374056e+56  -1.2704180684526074e+56  -1.3534150103923425e+62  -1.0085056352755840e+41  1.0866011255867429e+31  -7.1161119420500764e+40  -1.4084378720423660e+37  -2.3394246791205213e+36  -3.2081544517467161e+35  8.5852980124923156e+34  -5.3006394233650571e+50  1.3985812759855921e+24  3.3533387715042213e+60  -2.3550693400155391e+33  -2.8203282436115814e+44  -3.1534901301825431e+32  2.8126541419203873e+40  -4.1751298536210636e+55  -8.8124336471119990e+45  1.1571347440631856e+35  1.4390699297483058e+50  -1.0974518070826561e+29  -4.2106078749694971e+46  -2.6169384195029291e+63  -2.9187944144433515e+34  -3.3879690415226971e+43  1.2839690048628351e+33  -3.2988116408104332e+42  -8.5665063251355582e+35  -9.4658103658721981e+35  2.2773002311783723e+29  6.9138842004861695e+20  1.5495409702944482e+60  -1.7037765803893100e+39  -5.4988221190938878e+47  -2.4866299273567095e+60  5.6111766480760562e+43  1.4374121296073847e+35  5.1055164203134191e+42  -4.3878531845003464e+43  -1.1155997735191759e+51  -1.0264475113814976e+26  -2.0773093959215104e+36  1.2718091955115925e+34  -2.2060766950174109e+40  -1.6497200155976314e+44  9.8970780685589179e+42  -2.3193169481428703e+43  -9.5880226381891883e+32  -5.7612653663047322e+42  -7.6474081710858124e+32  1.5740959062255299e+49  -9.1431753337245095e+39  2.3560531090429164e+32  1.9964861525302780e+38  -2.8264456909773347e+57  1.5595238953615683e+31  -1.4331947641541484e+45  -9.6065711874216581e+57  -2.0666356487299944e+56  -1.8308387747780188e+56  2.1733279182039702e+45  5.2539744038071644e+45  -3.9310435362793007e+62  4.8835077874325971e+37  4.4953821353849846e+30  -1.8186180984734621e+41  2.1899275464743960e+47  1.3999057168544589e+53  -2.4800287820603944e+39  -6.2756080694405402e+34  -7.5011418007709884e+63  2.3213660186085031e+33  9.6845960742427886e+39  6.8354592546227663e+34  3.0691637835092944e+44  -4.1636288253416302e+33  1.2781710077093623e+37  -3.4295304428268819e+29  -3.9627041478633028e+40  -9.0038347765749122e+33  7.2890483087097555e+33  2.9388779314645198e+42  9.8290514871436587e+40  -6.4763884323159381e+41  1.2377395924409455e+62  -1.0451563245142411e+25  -1.1422662766374685e+41  -7.8989806146309569e+31  6.8119979233846714e+47  3.0519866508023490e+40  3.9711954552506481e+41  -1.0351338700854554e+43  2.3112642391603527e+39  1.4207473640740786e+32  9.1506354591023733e+32  -1.9080947678725431e+45  -5.6053567822038660e+31  1.6247032135721044e+37  5.8952970270653867e+58  -1.2083587235711361e+38  -4.7502473781586847e+45  -6.5590381036675069e+27  -2.5527347401503622e+44  -1.0994014271963402e+30  -8.1985473427824034e+28  2.9889026405249494e+61  6.6343175456082775e+61  1.3888112895876170e+25  -2.5045750767525422e+26  -3.2475404283957645e+36  1.3188236025920793e+45  -4.6610713425887624e+49  -2.0407465024489384e+48  5.8025513239904828e+46  -6.3401000446613897e+47  -2.2164310410471604e+44  4.5240480848077571e+64  -1.0261367299388912e+49  2.3442417774390442e+44  -2.6649345577342804e+33  9.0650039086500893e+34  4.1601708966801143e+47  8.4197128834535932e+50  6.6943717323899301e+47  2.6674041507160704e+45  7.1800719822762075e+54  1.1504169523095137e+33  -1.3900383932180495e+36  -1.0630166082507080e+33  -1.8835681105039474e+37  -7.5084133769920321e+38  3.3123793741064339e+31  -1.2078478277822001e+63  2.2983020098912016e+23  1.0148108071531999e+24  5.9434374710320819e+24  -1.5253284537425680e+62  5.3686756151995606e+61  -1.4773776147438626e+58  -1.5892105402592337e+39  -1.3538245718696899e+57  1.4095684648021986e+37  2.4190592554630861e+55  3.3693967323084790e+39  -4.0617713554511477e+38  -2.3426383367647017e+32  6.9901218285410032e+30  -2.9937638790271111e+31  -2.1894954447581497e+47  -1.5310649165504067e+24  2.9518021638386942e+31  5.9040939866070958e+37  -5.0525017900662467e+61  1.4253200551333039e+39  -8.4799749499106378e+44  1.6041801899128130e+42  -1.6434347135740871e+31  -2.8336504243522398e+39  3.4951057329399190e+41  -6.0796151590030994e+31  1.0038200474123544e+52  -9.0336280734347938e+56  -2.9820291230641752e+56  -2.1870177389861883e+58  5.2172029200844708e+31  3.6363981447367189e+47  1.5492019622337075e+27  -8.7624964666484143e+57  8.2517276137514191e+34  1.3230285691562122e+41  -9.4110520925056445e+37  -3.3864238316155866e+39  -7.0296501093253231e+63  -5.1794192455283264e+46  9.1544489394228485e+25  -1.8327006765959441e+56  -2.1223181586039128e+35  3.3639408604157256e+52  3.1456475922101954e+35  -9.8204440229587164e+40  -1.7244722564312170e+52  4.6335410179981581e+47  -1.1213901609576932e+50  -3.4219599281471642e+48  7.5105440748949506e+29  1.4695063475422297e+35  -1.5905845292908551e+42  -6.3224028160195309e+47  -2.0026314917335043e+46  -2.3276447925945812e+46  2.4656495284676134e+46  -1.0256640414294396e+48  1.0450983410376323e+37  5.9944709167363256e+35  5.4132969386016538e+42  1.9599330953295226e+42  1.2013557486727308e+32  -2.1195325845877280e+43  1.7119604537604033e+32  2.1615881622824429e+39  7.8045626278229259e+36  2.7429736975945943e+37  2.2248283583509034e+37  5.5191278385599356e+40  -7.3959419018763638e+44  -3.8706189524535191e+53  1.0501178827653408e+53  -5.9415277805345626e+54  -1.5870232700877500e+46  -5.6405152096085823e+61  4.0026619222593384e+40  6.7414714252072688e+44  3.0629695383877765e+27  1.0805799505051192e+26  -9.9931146407730781e+28  -8.0214109224204143e+42  1.1265228288492522e+42  -1.2505576133235556e+42  3.0352592455263011e+48  -1.2568157632556270e+51  7.4708442909670308e+29  -4.1174029898857234e+35  1.6070858463876640e+61  3.0944591811207761e+39  -1.9417721350531054e+38  8.2513551973753416e+43  1.3932024790945890e+31  -3.6060656724183916e+51  -5.1754721693590529e+36  6.4913046087200547e+52  4.617406543611