<?xml version="1.0"?>
<VTKFile type="UnstructuredGrid"  version="0.1"  >
<UnstructuredGrid>
<Piece  NumberOfPoints="2331" NumberOfCells="4248">
<Points>
<DataArray  type="Float64"  NumberOfComponents="3"  format="ascii">0 0.3 0  0 0 0  0.04999999999999999 0 0  0.0514582251803892 0.02410733605106462 0  0.0558116365147896 0.04786313285751154 0  0.06299675146291706 0.07092097740850717 0  0.07290879486935808 0.09294463440875382 0  0.08540322682126872 0.1136129493462312 0  0.1002978503657798 0.132624531648159 0  0.117375468351841 0.1497021496342203 0  0.1363870506537689 0.1645967731787313 0  0.1570553655912463 0.177091205130642 0  0.1790790225914929 0.187003248537083 0  0.2021368671424885 0.1941883634852104 0  0.2258926639489354 0.1985417748196108 0  0.25 0.2 0  0.2741073360510646 0.1985417748196108 0  0.2978631328575116 0.1941883634852104 0  0.3209209774085071 0.187003248537083 0  0.3429446344087537 0.177091205130642 0  0.3636129493462312 0.1645967731787313 0  0.3826245316481591 0.1497021496342202 0  0.3997021496342202 0.132624531648159 0  0.4145967731787313 0.1136129493462312 0  0.427091205130642 0.09294463440875371 0  0.4370032485370829 0.07092097740850713 0  0.4441883634852104 0.04786313285751155 0  0.4485417748196108 0.02410733605106461 0  0.45 0 0  0.55 0 0  0.5514582251803892 0.02410733605106462 0  0.5558116365147896 0.04786313285751154 0  0.5629967514629171 0.07092097740850717 0  0.5729087948693581 0.09294463440875382 0  0.5854032268212688 0.1136129493462312 0  0.6002978503657798 0.132624531648159 0  0.617375468351841 0.1497021496342203 0  0.6363870506537689 0.1645967731787313 0  0.6570553655912463 0.177091205130642 0  0.6790790225914929 0.187003248537083 0  0.7021368671424885 0.1941883634852104 0  0.7258926639489354 0.1985417748196108 0  0.75 0.2 0  0.7741073360510646 0.1985417748196108 0  0.7978631328575116 0.1941883634852104 0  0.8209209774085071 0.187003248537083 0  0.8429446344087537 0.177091205130642 0  0.8636129493462312 0.1645967731787313 0  0.8826245316481591 0.1497021496342202 0  0.8997021496342202 0.132624531648159 0  0.9145967731787312 0.1136129493462312 0  0.927091205130642 0.09294463440875371 0  0.9370032485370829 0.07092097740850713 0  0.9441883634852104 0.04786313285751155 0  0.9485417748196108 0.02410733605106461 0  0.95 0 0  1 0 0  1 0.3 0  0.9758926639489353 0.3014582251803892 0  0.9521368671424885 0.3058116365147896 0  0.9290790225914928 0.3129967514629171 0  0.9070553655912461 0.3229087948693581 0  0.8863870506537688 0.3354032268212687 0  0.867375468351841 0.3502978503657798 0  0.8502978503657798 0.367375468351841 0  0.8354032268212687 0.3863870506537689 0  0.822908794869358 0.4070553655912464 0  0.8129967514629171 0.4290790225914929 0  0.8058116365147896 0.4521368671424885 0  0.8014582251803892 0.4758926639489354 0  0.8 0.4999999999999999 0  0.8014582251803892 0.5241073360510646 0  0.8058116365147896 0.5478631328575115 0  0.8129967514629171 0.5709209774085071 0  0.8229087948693581 0.5929446344087538 0  0.8354032268212688 0.6136129493462312 0  0.8502978503657798 0.632624531648159 0  0.867375468351841 0.6497021496342202 0  0.8863870506537689 0.6645967731787313 0  0.9070553655912463 0.677091205130642 0  0.9290790225914929 0.6870032485370829 0  0.9521368671424885 0.6941883634852104 0  0.9758926639489354 0.6985417748196108 0  1 0.7 0  1 1 0  0.95 1 0  0.9485417748196108 0.9758926639489353 0  0.9441883634852104 0.9521368671424885 0  0.9370032485370829 0.9290790225914928 0  0.927091205130642 0.9070553655912463 0  0.9145967731787312 0.8863870506537688 0  0.8997021496342201 0.8673754683518409 0  0.882624531648159 0.8502978503657798 0  0.863612949346231 0.8354032268212686 0  0.8429446344087537 0.822908794869358 0  0.8209209774085071 0.8129967514629171 0  0.7978631328575114 0.8058116365147896 0  0.7741073360510646 0.8014582251803892 0  0.75 0.8 0  0.7258926639489353 0.8014582251803892 0  0.7021368671424885 0.8058116365147896 0  0.6790790225914928 0.8129967514629171 0  0.6570553655912461 0.8229087948693581 0  0.6363870506537688 0.8354032268212688 0  0.617375468351841 0.8502978503657798 0  0.6002978503657798 0.867375468351841 0  0.5854032268212687 0.8863870506537689 0  0.572908794869358 0.9070553655912463 0  0.5629967514629171 0.9290790225914929 0  0.5558116365147896 0.9521368671424885 0  0.5514582251803892 0.9758926639489355 0  0.55 0.9999999999999999 0  0.45 0.9999999999999999 0  0.4485417748196108 0.9758926639489353 0  0.4441883634852104 0.9521368671424885 0  0.4370032485370829 0.9290790225914928 0  0.427091205130642 0.9070553655912463 0  0.4145967731787313 0.8863870506537688 0  0.3997021496342201 0.8673754683518409 0  0.382624531648159 0.8502978503657798 0  0.363612949346231 0.8354032268212686 0  0.3429446344087536 0.822908794869358 0  0.3209209774085071 0.8129967514629171 0  0.2978631328575115 0.8058116365147896 0  0.2741073360510646 0.8014582251803892 0  0.25 0.8 0  0.2258926639489353 0.8014582251803892 0  0.2021368671424885 0.8058116365147896 0  0.1790790225914928 0.8129967514629171 0  0.1570553655912462 0.8229087948693581 0  0.1363870506537688 0.8354032268212688 0  0.117375468351841 0.8502978503657798 0  0.1002978503657797 0.867375468351841 0  0.08540322682126869 0.8863870506537689 0  0.07290879486935797 0.9070553655912463 0  0.06299675146291703 0.9290790225914929 0  0.05581163651478957 0.9521368671424885 0  0.0514582251803892 0.9758926639489355 0  0.04999999999999999 0.9999999999999999 0  0 1 0  -0 0.7000000000000001 0  0.0241073360510646 0.6985417748196108 0  0.04786313285751161 0.6941883634852104 0  0.07092097740850711 0.6870032485370829 0  0.09294463440875372 0.677091205130642 0  0.1136129493462312 0.6645967731787312 0  0.1326245316481591 0.6497021496342202 0  0.1497021496342202 0.632624531648159 0  0.1645967731787313 0.6136129493462312 0  0.177091205130642 0.5929446344087537 0  0.187003248537083 0.5709209774085071 0  0.1941883634852104 0.5478631328575115 0  0.1985417748196108 0.5241073360510646 0  0.2 0.5 0  0.1985417748196108 0.4758926639489353 0  0.1941883634852104 0.4521368671424885 0  0.1870032485370829 0.4290790225914928 0  0.177091205130642 0.4070553655912463 0  0.1645967731787313 0.3863870506537688 0  0.1497021496342202 0.3673754683518409 0  0.132624531648159 0.3502978503657798 0  0.113612949346231 0.3354032268212686 0  0.09294463440875361 0.322908794869358 0  0.07092097740850711 0.3129967514629171 0  0.04786313285751148 0.3058116365147896 0  0.02410733605106464 0.3014582251803892 0  0.6985417748196108 0.5241073360510646 0  0.7 0.5 0  0.6985417748196108 0.4758926639489353 0  0.6941883634852104 0.4521368671424885 0  0.6870032485370829 0.4290790225914928 0  0.677091205130642 0.4070553655912463 0  0.6645967731787312 0.3863870506537688 0  0.6497021496342201 0.3673754683518409 0  0.632624531648159 0.3502978503657798 0  0.613612949346231 0.3354032268212686 0  0.5929446344087537 0.322908794869358 0  0.5709209774085071 0.3129967514629171 0  0.5478631328575114 0.3058116365147896 0  0.5241073360510646 0.3014582251803892 0  0.4999999999999999 0.3 0  0.4758926639489353 0.3014582251803892 0  0.4521368671424885 0.3058116365147896 0  0.4290790225914928 0.3129967514629171 0  0.4070553655912462 0.3229087948693581 0  0.3863870506537688 0.3354032268212687 0  0.367375468351841 0.3502978503657798 0  0.3502978503657798 0.367375468351841 0  0.3354032268212687 0.3863870506537689 0  0.322908794869358 0.4070553655912464 0  0.3129967514629171 0.4290790225914929 0  0.3058116365147896 0.4521368671424885 0  0.3014582251803892 0.4758926639489354 0  0.3 0.4999999999999999 0  0.3014582251803892 0.5241073360510646 0  0.3058116365147896 0.5478631328575115 0  0.3129967514629171 0.5709209774085071 0  0.3229087948693581 0.5929446344087538 0  0.3354032268212687 0.6136129493462312 0  0.3502978503657798 0.632624531648159 0  0.367375468351841 0.6497021496342202 0  0.3863870506537689 0.6645967731787313 0  0.4070553655912463 0.677091205130642 0  0.4290790225914929 0.6870032485370829 0  0.4521368671424885 0.6941883634852104 0  0.4758926639489354 0.6985417748196108 0  0.4999999999999999 0.7 0  0.5241073360510646 0.6985417748196108 0  0.5478631328575116 0.6941883634852104 0  0.5709209774085071 0.6870032485370829 0  0.5929446344087537 0.677091205130642 0  0.6136129493462312 0.6645967731787312 0  0.6326245316481591 0.6497021496342202 0  0.6497021496342202 0.632624531648159 0  0.6645967731787312 0.6136129493462312 0  0.677091205130642 0.5929446344087537 0  0.6870032485370829 0.5709209774085071 0  0.6941883634852104 0.5478631328575115 0  0 0.15 0  1 0.15 0  1 0.85 0  0 0.8500000000000001 0  0 0.075 0  1 0.075 0  1 0.925 0  0 0.925 0  0.5 0.8127595604293815 0  0.5069440078039168 0.190422209288238 0  0.25 0.3127595604293815 0  0.756944007803917 0.3095777907117619 0  0.756944007803917 0.6904222092882382 0  0.25 0.6872404395706185 0  0 0.225 0  0.4255768646051012 0.2241073097134061 0  1 0.7749999999999999 0  0.6773391559270888 0.2766774022734219 0  1 0.225 0  0.6755768646051011 0.7241073097134062 0  0 0.7750000000000001 0  0.5818971135297744 0.2287925518358889 0  0.8318971135297746 0.728792551835889 0  0.1659156081861886 0.7301636995921477 0  0.08376842746533225 0.2299656297760495 0  0.4236002201977974 0.7746535834185855 0  0.0840843918138115 0.7698363004078523 0  0.3340843918138113 0.7301636995921477 0  0.3340843918138114 0.2698363004078523 0  0.9159156081861887 0.2301636995921477 0  0.5840843918138116 0.7698363004078522 0  0.1659156081861887 0.2698363004078523 0  0.9162315725346678 0.7700343702239506 0  0.8340843918138114 0.2698363004078523 0  0.75 0.6146645247768686 0  0.5 0.1125158665330878 0  0.75 0.3874841334669124 0  0.2504983345544904 0.6122915843562002 0  0.2504983345544902 0.3877084156437999 0  0.5 0.8879783056303169 0  0.7005361650220154 0.3333055947145943 0  0.70416808765371 0.6599554817221275 0  0.449930214263529 0.1678187287522426 0  0.2247310981387008 0.7415600637745463 0  0.5155081196221678 0.7563797802146907 0  0.2752689018612993 0.2584399362254537 0  0.05605196690611226 0.8246131191226815 0  0.9439480330938878 0.1
[...]
<PointData  Scalars="Temperature"> 
<DataArray  type="Float64"  Name="Temperature"  format="ascii">2.2269895712338656e+01  2.2642960752140326e+01  2.2637325258788703e+01  2.2632061228358726e+01  2.2616591625072452e+01  2.2590889762006924e+01  2.2554456685081163e+01  2.2505879176217235e+01  2.2446065135454411e+01  2.2374812765587382e+01  2.2291383505722212e+01  2.2197079836545850e+01  2.2094211455758401e+01  2.1984500052164648e+01  2.1869180363200336e+01  2.1751929220756427e+01  2.1634830202157953e+01  2.1519453456285905e+01  2.1410759017118377e+01  2.1308037691695276e+01  2.1215343503410441e+01  2.1133598336968170e+01  2.1059890008314781e+01  2.0998841947887861e+01  2.0948130835492584e+01  2.0911155056236446e+01  2.0882499711961579e+01  2.0866384677378282e+01  2.0860479857607999e+01  2.0671839278167987e+01  2.0665706279606649e+01  2.0646896652812725e+01  2.0615599288741656e+01  2.0575860352753207e+01  2.0527464071512927e+01  2.0473949816274512e+01  2.0420031713642683e+01  2.0365312680200514e+01  2.0312764441615961e+01  2.0264071061699006e+01  2.0220144457927489e+01  2.0181681237693937e+01  2.0148930287646760e+01  2.0121486617812444e+01  2.0098771237730816e+01  2.0080560890603174e+01  2.0065901813788820e+01  2.0054459960137532e+01  2.0045473386054280e+01  2.0038615861855309e+01  2.0033476002381185e+01  2.0029760062112189e+01  2.0027242320637992e+01  2.0025577379454216e+01  2.0024654024376709e+01  2.0024363675397620e+01  2.0022511303377630e+01  2.0021128821492983e+01  2.0023005535197164e+01  2.0027743529100452e+01  2.0034332486159084e+01  2.0042053781975657e+01  2.0050505333686441e+01  2.0058902635295581e+01  2.0067188026776581e+01  2.0074373854723731e+01  2.0080432426728265e+01  2.0084005160042324e+01  2.0085610185727013e+01  2.0084525344103660e+01  2.0080994936375937e+01  2.0076188957188624e+01  2.0069387541245405e+01  2.0061541150208569e+01  2.0053455414128827e+01  2.0045327939182627e+01  2.0037491517218580e+01  2.0030594666172405e+01  2.0024368109597269e+01  2.0019190534667434e+01  2.0014925096425060e+01  2.0011630987307228e+01  2.0009408836280759e+01  2.0008518493917805e+01  2.0003438373790722e+01  2.0003706959100196e+01  2.0003899252004544e+01  2.0004401163410854e+01  2.0005174837730422e+01  2.0006232691659296e+01  2.0007714283946644e+01  2.0009725099208666e+01  2.0012346180237333e+01  2.0015739590961502e+01  2.0020112268179357e+01  2.0025643719775584e+01  2.0032387694501963e+01  2.0040482216032895e+01  2.0049707346577769e+01  2.0060171529154911e+01  2.0071168880565288e+01  2.0082761029293188e+01  2.0093422573609185e+01  2.0103172321412636e+01  2.0110940607979487e+01  2.0116526628740509e+01  2.0118694096608760e+01  2.0118457502875835e+01  2.0115314633036327e+01  2.0110021354600430e+01  2.0105087730888201e+01  2.0102807186831235e+01  2.0130719195674224e+01  2.0136970063479733e+01  2.0151591629107592e+01  2.0172261085789167e+01  2.0197728869824257e+01  2.0228497090220266e+01  2.0264000313074501e+01  2.0304441862418834e+01  2.0348695797255324e+01  2.0396769849563501e+01  2.0446339622235495e+01  2.0496043971221013e+01  2.0543181072455187e+01  2.0585406720737144e+01  2.0620489812211389e+01  2.0645573527467374e+01  2.0659407733922126e+01  2.0661900444301548e+01  2.0651977507716978e+01  2.0632896655592504e+01  2.0604623011525451e+01  2.0569249755184938e+01  2.0529334946818945e+01  2.0487623882658454e+01  2.0447287022156107e+01  2.0415404262627064e+01  2.0400583465961134e+01  2.0401943724183081e+01  2.0923802594522339e+01  2.0924310090539795e+01  2.0927553390257835e+01  2.0933260944438999e+01  2.0941707598054645e+01  2.0953244610825614e+01  2.0968502792111703e+01  2.0989530251496451e+01  2.1015575086054426e+01  2.1045845452866025e+01  2.1085114033666049e+01  2.1131462661400764e+01  2.1187185987343494e+01  2.1251038281780072e+01  2.1323606551993112e+01  2.1405012369386522e+01  2.1494553691113357e+01  2.1591263323991537e+01  2.1693598515114530e+01  2.1798405719634719e+01  2.1901899561159063e+01  2.1999976190055708e+01  2.2089287988871991e+01  2.2164876364247270e+01  2.2221684884056277e+01  2.2257748066645124e+01  2.0112546404522551e+01  2.0117652286012486e+01  2.0125761283974100e+01  2.0136967611492928e+01  2.0152002800261638e+01  2.0171410665038756e+01  2.0195973560583830e+01  2.0226679290908333e+01  2.0264565023894484e+01  2.0309435560613540e+01  2.0362960974462140e+01  2.0425437154585261e+01  2.0496425728606877e+01  2.0575750406256791e+01  2.0661707831444016e+01  2.0752137104880276e+01  2.0843599735723551e+01  2.0934183340754448e+01  2.1016408089974501e+01  2.1091565794562527e+01  2.1152390489393376e+01  2.1198470027779972e+01  2.1224815582931747e+01  2.1236086707286582e+01  2.1225743296512441e+01  2.1200753747943665e+01  2.1158858084186310e+01  2.1104814130237926e+01  2.1041358420619602e+01  2.0969895745475057e+01  2.0895577364473475e+01  2.0817316482220168e+01  2.0740123900881130e+01  2.0664511678806395e+01  2.0592153989242778e+01  2.0524598014368333e+01  2.0461572522331402e+01  2.0404885752404258e+01  2.0353715793469053e+01  2.0308753719592232e+01  2.0269398445445706e+01  2.0235450339878856e+01  2.0206436398984611e+01  2.0182466520048351e+01  2.0162598098618648e+01  2.0146384304052688e+01  2.0133472745665159e+01  2.0123616309480159e+01  2.0116448085014078e+01  2.0111988187894458e+01  2.0109678161672743e+01  2.0109989663630508e+01  2.2521184304299201e+01  2.0022761602337958e+01  2.0005663524831988e+01  2.0626730157528719e+01  2.2610931179740728e+01  2.0022839874617329e+01  2.0004242110375404e+01  2.0483816864807967e+01  2.0206168956948392e+01  2.0689895583966251e+01  2.1594080004379080e+01  2.0128761728769337e+01  2.0060358142103031e+01  2.0756523253824238e+01  2.2385261489797745e+01  2.0975048351475465e+01  2.0007257464503393e+01  2.0235009165335470e+01  2.0021716031477773e+01  2.0097343831039652e+01  2.0795942192062441e+01  2.0447007376611875e+01  2.0030153095589267e+01  2.0796294979669806e+01  2.2293127329579313e+01  2.0329336188525804e+01  2.0782385887652193e+01  2.0526529751963650e+01  2.1314853771866655e+01  2.0037766749493365e+01  2.0150276429171836e+01  2.1990798132851246e+01  2.0012884495772081e+01  2.0073580349312639e+01  2.0076943940861145e+01  2.0747155299850739e+01  2.0121341389015438e+01  2.0916270344357514e+01  2.1435918983924111e+01  2.0160059806882188e+01  2.0185951904554209e+01  2.0094283075627086e+01  2.0911745927227848e+01  2.0690985427065375e+01  2.0225822195656495e+01  2.1585110732992622e+01  2.0673315148017789e+01  2.0030425113673942e+01  2.2443339808472203e+01  2.0008000490442150e+01  2.0736956366933359e+01  2.0063168578867060e+01  2.0161377214829184e+01  2.0253134915023956e+01  2.0881876930371050e+01  2.1785289742034298e+01  2.0664470903680307e+01  2.1342154855271648e+01  2.0147153422328945e+01  2.0759914682521774e+01  2.0110001421580034e+01  2.0089643392205332e+01  2.1311032505934353e+01  2.1069579186228150e+01  2.0116091545636451e+01  2.0131561285889742e+01  2.1798773487576106e+01  2.0615875536022553e+01  2.0524771188305557e+01  2.0051561180120583e+01  2.0082800189617771e+01  2.0315047246475796e+01  2.1079726710059436e+01  2.1242319157338535e+01  2.0108103669918862e+01  2.0143656519666916e+01  2.0324128063297021e+01  2.0044320014891827e+01  2.0109768100738371e+01  2.0099670424185049e+01  2.0764193227647080e+01  2.1192051821493667e+01  2.0411226400293188e+01  2.0444055829192330e+01  2.0583969572319013e+01  2.0020391684318962e+01  2.0019580123796867e+01  2.0266364329306342e+01  2.2161327139124115e+01  2.0856416089597939e+01  2.0042577404975017e+01  2.0734312078895321e+01  2.2137224827266955e+01  2.0860753208711149e+01  2.0025644988598760e+01  2.0059411400611349e+01  2.0009957665082545e+01  2.2294990148396217e+01  2.0027335385849423e+01  2.0006188667833847e+01  2.2536873633067295e+01  2.0586290737880699e+01  2.0092436076214440e+01  2.0042253135485570e+01  2.0603010250258684e+01  2.0079601650864610e+01  2.0122448629682246e+01  2.0559582048907050e+01  2.1954414749894159e+01  2.0042868524645513e+01  2.1199122338355799e+01  2.0903838586498697e+01  2.0686246278187514e+01  2.2346135015432790e+01  2.0013114513005956e+01  2.0952508325875915e+01  2.1623584175571068e+01  2.0162422092082164e+01  2.0030538626574980e+01  2.1432096885593118e+01  2.0787479188044422e+01  2.0217575119016342e+01  2.0256977768140661e+01  2.0326463801884078e+01  2.0869854763013986e+01  2.0124018124917242e+01  2.1104723770123254e+01  2.0082605230249431e+01  2.0205000873493486e+01  2.0329963565423920e+01  2.0453769492182225e+01  2.0176620234863229e+01  2.0032203675193749e+01  2.0385701374800647e+01  2.0696228965634454e+01  2.1422394414801975e+01  2.0518908635811176e+01  2.1969011585665395e+01  2.0061261454857668e+01  2.0180022742799409e+01  2.0821955363605110e+01  2.2384431675631248e+01  2.0082942354421718e+01  2.0027811495889281e+01  2.0763660678420766e+01  2.0184606050654306e+01  2.0708822405052150e+01  2.0022309751663336e+01  2.0096237602737620e+01  2.0008597448651141e+01  2.0892460799738320e+01  2.0138987126378307e+01  2.0163298866408379e+01  2.0772057018044030e+01  2.2458496871372986e+01  2.0071955318224067e+01  2.0098611469476975e+01  2.0067637575850092e+01  2.1037101995637400e+01  2.1501031444243601e+01  2.0793145835861132e+01  2.1299241605673593e+01  2.0884995309944102e+01  2.0840800803231932e+01  2.0673117502218851e+01  2.0097503710205181e+01  2.0139128529635364e+01  2.0132139873512624e+01  2.0129264216372157e+01  2.0170558189837397e+01  2.0006459498845388e+01  2.0879212283196534e+01  2.0004946957047920e+01  2.0021051171872838e+01  2.2311022386560172e+01  2.0022599551032314e+01  2.2634865763308934e+01  2.0022924955730740e+01  2.0025343803433241e+01  2.2572444487218732e+01  2.0003684792848563e+01  2.0427956633795901e+01  2.0008069274620716e+01  2.0551596860962430e+01  2.0518370714608331e+01  2.1298367592569992e+01  2.0943217299540294e+01  2.0779419043521457e+01  2.1434195583156072e+01  2.0207592938807952e+01  2.0014041489697327e+01  2.0589411716544365e+01  2.1790452917857714e+01  2.0048205713918446e+01  2.0058205803654303e+01  2.0277997260705039e+01  2.0008412846145728e+01  2.0186281544050527e+01  2.0622112928218716e+01  2.0852990933742493e+01  2.1572294526815607e+01  2.2121896039764231e+01  2.0383694736987639e+01  2.0627554767496378e+01  2.0127659005217343e+01  2.0110572614851080e+01  2.0216107179212180e+01  2.0101123136739051e+01  2.0116829469527758e+01  2.0005011156838680e+01  2.2585242640025495e+01  2.2247199511483934e+01  2.0039060413700216e+01  2.0671885804045914e+01  2.1744252391877442e+01  2.0056149577787231e+01  2.0528050916321050e+01  2.0090493798570872e+01  2.0033350631160118e+01  2.0199188926406634e+01  2.1109427614674672e+01  2.0119989130467129e+01  2.0376478460367949e+01  2.2620472406680658e+01  2.0024300437042719e+01  2.0004168582432484e+01  2.0454669049521613e+01  2.0375245527559578e+01  2.0099900751795943e+01  2.0850422833625466e+01  2.0614353867176057e+01  2.0665278363764855e+01  2.0033696145455561e+01  2.0024481661521484e+01  2.0449496511249897e+01  2.2426031657932317e+01  2.2372675890153591e+01  2.2483308623318958e+01  2.1037419383061980e+01  2.0941293613482578e+01  2.2217849909561988e+01  2.0244812372216273e+01  2.0917993069320822e+01  2.0683517297394051e+01  2.0055212064102673e+01  2.0214403962035465e+01  2.0132286728094424e+01  2.1226365843624762e+01  2.0145469976322282e+01  2.0006795759926291e+01  2.0109529006371837e+01  2.0076287577454185e+01  2.0442830138016962e+01  2.0113893991678218e+01  2.0067146649030239e+01  2.0813702675754406e+01  2.0713454630619264e+01  2.0093949065004750e+01  2.0122910528686500e+01  2.1207117276697844e+01  2.1338004036479106e+01  2.0196020416405084e+01  2.0023214127507490e+01  2.0137804187532126e+01  2.0292809138615993e+01  2.1454575869561356e+01  2.0493681231455636e+01  2.1870192585299399e+01  2.0601627121360337e+01  2.0630148394817379e+01  2.0758233220202335e+01  2.1568147667657147e+01  2.1653689772064030e+01  2.0705975214206312e+01  2.0146880980307376e+01  2.0128160101245061e+01  2.1464563873394088e+01  2.0843532998110909e+01  2.1262473402911784e+01  2.1841487846945569e+01  2.0634875992891072e+01  2.0960900790555044e+01  2.0173792708908174e+01  2.0104342809482958e+01  2.0084997934723589e+01  2.1100187772282471e+01  2.1168040478343084e+01  2.2060558890605385e+01  2.0078596420469530e+01  2.0066110854737584e+01  2.0063593010119408e+01  2.0957520192635819e+01  2.0090420028176226e+01  2.0218505526311738e+01  2.0991259981156752e+01  2.0243634616037461e+01  2.0284873300878058e+01  2.0157945670894463e+01  2.0715015145716794e+01  2.0717354197406102e+01  2.0179265560918626e+01  2.0260924909835477e+01  2.0010024825616558e+01  2.2245188135662410e+01  2.0076451896312950e+01  2.0518040439900631e+01  2.0022560915531763e+01  2.0017248267257628e+01  2.0103144583157381e+01  2.0076985440389144e+01  2.0070131297690249e+01  2.0690199943286032e+01  2.1089118944007662e+01  2.1190739517663083e+01  2.0105246795852146e+01  2.0123917228948599e+01  2.0410375748578936e+01  2.0454911503471102e+01  2.0690168195532014e+01  2.0378293364086129e+01  2.0047570041833922e+01  2.0085576351640515e+01  2.0034912534941373e+01  2.0720234567591778e+01  2.0535660530217427e+01  2.0003562969937263e+01  2.0023384313894681e+01  2.2640604969518495e+01  2.0401155489389012e+01  2.0790130173243373e+01  2.0387231420344595e+01  2.1231661508137417e+01  2.0286084357741348e+01  2.0099874978783696e+01  2.0052492949817086e+01  2.0681304215925298e+01  2.0842183434131780e+01  2.1380107609557083e+01  2.0103290103150780e+01  2.0025374256313597e+01  2.0022191692142997e+01  2.0016893993163468e+01  2.0026213928724513e+01  2.0167664176002418e+01  2.1349124214005339e+01  2.1018776163272477e+01  2.0120210179818198e+01  2.0106698186710279e+01  2.0145924919178714e+01  2.0130137903957014e+01  2.0075489762666272e+01  2.1117581563240911e+01  2.1001460459258780e+01  2.2038042861269027e+01  2.1310829502037333e+01  2.0379113285529286e+01  2.2209724440949653e+01  2.0824299212563886e+01  2.0469660646298493e+01  2.0116695377788965e+01  2.2351765230811885e+01  2.0980975255031911e+01  2.0047711237709454e+01  2.0055227447519140e+01  2.0009984345525165e+01  2.0731177861663664e+01  2.1909897037373138e+01  2.0568664196351371e+01  2.0745527593586768e+01  2.0797638207266377e+01  2.0779831492973106e+01  2.1264639636299492e+01  2.0115099968369488e+01  2.2485658234990556e+01  2.0015514014941957e+01  2.1407799014812355e+01  2.0306258249035622e+01  2.0750525476521926e+01  2.0024202486754728e+01  2.0063411221273341e+01  2.0237024152419941e+01  2.1209469275643304e+01  2.0120803522450316e+01  2.1734400374857241e+01  2.0094036829426571e+01  2.0008073753173544e+01  2.0910059174773952e+01  2.0282023048865387e+01  2.1240639424568531e+01  2.0045824808406902e+01  2.0754568809743297e+01  2.0023754163379984e+01  2.0419587040460307e+01  2.2634691316814852e+01  2.0003763481779785e+01  2.0643851583572165e+01  2.0116703453825831e+01  2.0017807420425004e+01  2.0068614933053812e+01  2.0855364880194678e+01  2.0244548967827726e+01  2.0031630106669539e+01  2.0153959558377654e+01  2.2267016412152849e+01  2.0929564372745098e+01  2.0834014398856183e+01  2.0706155793646044e+01  2.0090844170897558e+01  2.0430366959107094e+01  2.0502716135021476e+01  2.0906225159087537e+01  2.0025399084976485e+01  2.0808862654409324e+01  2.0088093649638388e+01  2.0609987896253919e+01  2.1672782652045708e+01  2.0866720371712244e+01  2.0038477314711457e+01  2.1683640711561750e+01  2.0249999373851459e+01  2.0035654620918613e+01  2.0052934684732971e+01  2.0052679499571259e+01  2.0152700138354039e+01  2.0156239079028378e+01  2.0010508065909718e+01  2.0660524111709297e+01  2.1904355607929084e+01  2.0529356762589920e+01  2.0185662470445969e+01  2.0106734280143716e+01  2.0870470219556267e+01  2.0723664036778398e+01  2.0007193955505635e+01  2.1532906054881650e+01  2.0719767095473554e+01  2.0702027382156786e+01  2.0125869801947033e+01  2.0828773712877702e+01  2.0592313495630698e+01  2.2036114534884845e+01  2.0040333649021655e+01  2.0655942026711433e+01  2.0835685243122825e+01  2.0030477475779140e+01  2.0021434838358058e+01  2.0023597920219267e+01  2.0011044024013906e+01  2.2436833636077587e+01  2.0339488063768034e+01  2.1599292057131887e+01  2.0140973675244833e+01  2.0659141428680609e+01  2.0510924617098869e+01  2.0328437872834293e+01  2.0798259813041010e+01  2.1347311638595418e+01  2.1710082586372611e+01  2.0047854142841246e+01  2.0546609944052680e+01  2.0030013817688346e+01  2.0028913799881543e+01  2.0895478611577651e+01  2.0316628529059621e+01  2.2138348528366596e+01  2.0038467400348342e+01  2.2071138732330411e+01  2.2157162571795606e+01  2.0011447179250407e+01  2.0008972651379601e+01  2.2283331720199698e+01  2.2327995511367607e+01  2.1149385438912077e+01  2.0290047833477484e+01  2.0138931308122562e+01  2.0102816067486000e+01  2.0306647132534703e+01  2.0247505886025195e+01  2.0135627237858113e+01  2.0006612556235392e+01  2.0142835392152200e+01  2.0365790125716778e+01  2.1339838356984330e+01  2.1264820511940023e+01  2.0087619948108802e+01  2.0107179195213948e+01  2.0121655665653979e+01  2.0290788831759414e+01  2.0080394623798686e+01  2.1268120536034161e+01  2.0904646266016311e+01  2.0714560852801938e+01  2.1005729093887648e+01  2.0915600625799978e+01  2.1535186277995837e+01  2.0005294513654846e+01  2.2548341638067633e+01  2.2522926617482440e+01  2.2515499753227768e+01  2.0007535295548493e+01  2.0005988340626207e+01  2.0027568619612651e+01  2.0650677641469084e+01  2.0041059283373720e+01  2.1011854450729480e+01  2.0059534460144832e+01  2.0028781185134736e+01  2.0024425217772794e+01  2.0632769640482039e+01  2.0588288899633323e+01  2.0614597278194150e+01  2.0117057639301549e+01  2.2557593985961006e+01  2.0558477283540533e+01  2.0024462484018773e+01  2.0014167455684539e+01  2.0569220013724134e+01  2.0194927659292127e+01  2.0501825839122773e+01  2.1477881361761167e+01  2.0856434030895208e+01  2.0021017708561512e+01  2.0910293654181189e+01  2.0106627072901869e+01  2.0046327671786926e+01  2.0050498700994332e+01  2.0034019442468040e+01  2.1859049274099203e+01  2.0188143976681221e+01  2.2320130949432105e+01  2.0037617152354830e+01  2.0661440661376794e+01  2.0049118863818617e+01  2.0980406105155929e+01  2.0582943566550465e+01  2.0005792322246311e+01  2.0224269485033602e+01  2.2253026480659276e+01  2.0055139020211588e+01  2.0022441584640731e+01  2.0116830693074103e+01  2.1318784851779355e+01  2.0567641556146437e+01  2.0086885904810241e+01  2.0236194282182034e+01  2.0169400845264736e+01  2.0157046992820522e+01  2.1879358881546501e+01  2.1153723063346941e+01  2.0476014284829873e+01  2.0178655736872820e+01  2.0057819774103518e+01  2.0115504929077829e+01  2.0175854556769274e+01  2.0167658696453273e+01  2.0666020723632897e+01  2.0940090632072323e+01  2.0545271122197310e+01  2.0022450314931117e+01  2.0895397631723267e+01  2.0040409760741774e+01  2.1525307805944603e+01  2.0789493582707340e+01  2.0830830590579225e+01  2.0795470912971538e+01  2.0911340996765620e+01  2.0087780965981452e+01  2.0364852890033529e+01  2.0090029001969686e+01  2.0085244172254882e+01  2.0071760418014978e+01  2.0217165619444863e+01  2.0011737750497797e+01  2.0036062483672424e+01  2.0258716038027096e+01  2.2321899643575108e+01  2.2399437102871357e+01  2.2057667918540805e+01  2.0208574776790137e+01  2.0604580796173092e+01  2.0552496116517503e+01  2.0081794660509953e+01  2.0110769169209338e+01  2.1923333948694360e+01  2.1141890949038579e+01  2.0013728654731938e+01  2.0802301456592325e+01  2.0919960034908147e+01  2.0061813871562755e+01  2.1829038472207490e+01  2.0137920942956846e+01  2.1024208458486886e+01  2.0111417248177645e+01  2.1115497852316118e+01  2.0318675522595296e+01  2.0337644297050126e+01  2.0133170777386631e+01  2.1452549092267517e+01  2.0190248513419501e+01  2.0078494050549974e+01  2.0151734249926733e+01  2.0141005200519203e+01  2.1268170729245139e+01  2.0176083771220831e+01  2.0226774787056375e+01  2.1116754446252131e+01  2.0273443272217655e+01  2.0094529318872357e+01  2.0876964816403955e+01  2.0005288326340935e+01  2.2556916774399376e+01  2.095