<?xml version="1.0"?>
<VTKFile type="UnstructuredGrid"  version="0.1"  >
<UnstructuredGrid>
<Piece  NumberOfPoints="2331" NumberOfCells="4248">
<Points>
<DataArray  type="Float64"  NumberOfComponents="3"  format="ascii">0 0.3 0  0 0 0  0.04999999999999999 0 0  0.0514582251803892 0.02410733605106462 0  0.0558116365147896 0.04786313285751154 0  0.06299675146291706 0.07092097740850717 0  0.07290879486935808 0.09294463440875382 0  0.08540322682126872 0.1136129493462312 0  0.1002978503657798 0.132624531648159 0  0.117375468351841 0.1497021496342203 0  0.1363870506537689 0.1645967731787313 0  0.1570553655912463 0.177091205130642 0  0.1790790225914929 0.187003248537083 0  0.2021368671424885 0.1941883634852104 0  0.2258926639489354 0.1985417748196108 0  0.25 0.2 0  0.2741073360510646 0.1985417748196108 0  0.2978631328575116 0.1941883634852104 0  0.3209209774085071 0.187003248537083 0  0.3429446344087537 0.177091205130642 0  0.3636129493462312 0.1645967731787313 0  0.3826245316481591 0.1497021496342202 0  0.3997021496342202 0.132624531648159 0  0.4145967731787313 0.1136129493462312 0  0.427091205130642 0.09294463440875371 0  0.4370032485370829 0.07092097740850713 0  0.4441883634852104 0.04786313285751155 0  0.4485417748196108 0.02410733605106461 0  0.45 0 0  0.55 0 0  0.5514582251803892 0.02410733605106462 0  0.5558116365147896 0.04786313285751154 0  0.5629967514629171 0.07092097740850717 0  0.5729087948693581 0.09294463440875382 0  0.5854032268212688 0.1136129493462312 0  0.6002978503657798 0.132624531648159 0  0.617375468351841 0.1497021496342203 0  0.6363870506537689 0.1645967731787313 0  0.6570553655912463 0.177091205130642 0  0.6790790225914929 0.187003248537083 0  0.7021368671424885 0.1941883634852104 0  0.7258926639489354 0.1985417748196108 0  0.75 0.2 0  0.7741073360510646 0.1985417748196108 0  0.7978631328575116 0.1941883634852104 0  0.8209209774085071 0.187003248537083 0  0.8429446344087537 0.177091205130642 0  0.8636129493462312 0.1645967731787313 0  0.8826245316481591 0.1497021496342202 0  0.8997021496342202 0.132624531648159 0  0.9145967731787312 0.1136129493462312 0  0.927091205130642 0.09294463440875371 0  0.9370032485370829 0.07092097740850713 0  0.9441883634852104 0.04786313285751155 0  0.9485417748196108 0.02410733605106461 0  0.95 0 0  1 0 0  1 0.3 0  0.9758926639489353 0.3014582251803892 0  0.9521368671424885 0.3058116365147896 0  0.9290790225914928 0.3129967514629171 0  0.9070553655912461 0.3229087948693581 0  0.8863870506537688 0.3354032268212687 0  0.867375468351841 0.3502978503657798 0  0.8502978503657798 0.367375468351841 0  0.8354032268212687 0.3863870506537689 0  0.822908794869358 0.4070553655912464 0  0.8129967514629171 0.4290790225914929 0  0.8058116365147896 0.4521368671424885 0  0.8014582251803892 0.4758926639489354 0  0.8 0.4999999999999999 0  0.8014582251803892 0.5241073360510646 0  0.8058116365147896 0.5478631328575115 0  0.8129967514629171 0.5709209774085071 0  0.8229087948693581 0.5929446344087538 0  0.8354032268212688 0.6136129493462312 0  0.8502978503657798 0.632624531648159 0  0.867375468351841 0.6497021496342202 0  0.8863870506537689 0.6645967731787313 0  0.9070553655912463 0.677091205130642 0  0.9290790225914929 0.6870032485370829 0  0.9521368671424885 0.6941883634852104 0  0.9758926639489354 0.6985417748196108 0  1 0.7 0  1 1 0  0.95 1 0  0.9485417748196108 0.9758926639489353 0  0.9441883634852104 0.9521368671424885 0  0.9370032485370829 0.9290790225914928 0  0.927091205130642 0.9070553655912463 0  0.9145967731787312 0.8863870506537688 0  0.8997021496342201 0.8673754683518409 0  0.882624531648159 0.8502978503657798 0  0.863612949346231 0.8354032268212686 0  0.8429446344087537 0.822908794869358 0  0.8209209774085071 0.8129967514629171 0  0.7978631328575114 0.8058116365147896 0  0.7741073360510646 0.8014582251803892 0  0.75 0.8 0  0.7258926639489353 0.8014582251803892 0  0.7021368671424885 0.8058116365147896 0  0.6790790225914928 0.8129967514629171 0  0.6570553655912461 0.8229087948693581 0  0.6363870506537688 0.8354032268212688 0  0.617375468351841 0.8502978503657798 0  0.6002978503657798 0.867375468351841 0  0.5854032268212687 0.8863870506537689 0  0.572908794869358 0.9070553655912463 0  0.5629967514629171 0.9290790225914929 0  0.5558116365147896 0.9521368671424885 0  0.5514582251803892 0.9758926639489355 0  0.55 0.9999999999999999 0  0.45 0.9999999999999999 0  0.4485417748196108 0.9758926639489353 0  0.4441883634852104 0.9521368671424885 0  0.4370032485370829 0.9290790225914928 0  0.427091205130642 0.9070553655912463 0  0.4145967731787313 0.8863870506537688 0  0.3997021496342201 0.8673754683518409 0  0.382624531648159 0.8502978503657798 0  0.363612949346231 0.8354032268212686 0  0.3429446344087536 0.822908794869358 0  0.3209209774085071 0.8129967514629171 0  0.2978631328575115 0.8058116365147896 0  0.2741073360510646 0.8014582251803892 0  0.25 0.8 0  0.2258926639489353 0.8014582251803892 0  0.2021368671424885 0.8058116365147896 0  0.1790790225914928 0.8129967514629171 0  0.1570553655912462 0.8229087948693581 0  0.1363870506537688 0.8354032268212688 0  0.117375468351841 0.8502978503657798 0  0.1002978503657797 0.867375468351841 0  0.08540322682126869 0.8863870506537689 0  0.07290879486935797 0.9070553655912463 0  0.06299675146291703 0.9290790225914929 0  0.05581163651478957 0.9521368671424885 0  0.0514582251803892 0.9758926639489355 0  0.04999999999999999 0.9999999999999999 0  0 1 0  -0 0.7000000000000001 0  0.0241073360510646 0.6985417748196108 0  0.04786313285751161 0.6941883634852104 0  0.07092097740850711 0.6870032485370829 0  0.09294463440875372 0.677091205130642 0  0.1136129493462312 0.6645967731787312 0  0.1326245316481591 0.6497021496342202 0  0.1497021496342202 0.632624531648159 0  0.1645967731787313 0.6136129493462312 0  0.177091205130642 0.5929446344087537 0  0.187003248537083 0.5709209774085071 0  0.1941883634852104 0.5478631328575115 0  0.1985417748196108 0.5241073360510646 0  0.2 0.5 0  0.1985417748196108 0.4758926639489353 0  0.1941883634852104 0.4521368671424885 0  0.1870032485370829 0.4290790225914928 0  0.177091205130642 0.4070553655912463 0  0.1645967731787313 0.3863870506537688 0  0.1497021496342202 0.3673754683518409 0  0.132624531648159 0.3502978503657798 0  0.113612949346231 0.3354032268212686 0  0.09294463440875361 0.322908794869358 0  0.07092097740850711 0.3129967514629171 0  0.04786313285751148 0.3058116365147896 0  0.02410733605106464 0.3014582251803892 0  0.6985417748196108 0.5241073360510646 0  0.7 0.5 0  0.6985417748196108 0.4758926639489353 0  0.6941883634852104 0.4521368671424885 0  0.6870032485370829 0.4290790225914928 0  0.677091205130642 0.4070553655912463 0  0.6645967731787312 0.3863870506537688 0  0.6497021496342201 0.3673754683518409 0  0.632624531648159 0.3502978503657798 0  0.613612949346231 0.3354032268212686 0  0.5929446344087537 0.322908794869358 0  0.5709209774085071 0.3129967514629171 0  0.5478631328575114 0.3058116365147896 0  0.5241073360510646 0.3014582251803892 0  0.4999999999999999 0.3 0  0.4758926639489353 0.3014582251803892 0  0.4521368671424885 0.3058116365147896 0  0.4290790225914928 0.3129967514629171 0  0.4070553655912462 0.3229087948693581 0  0.3863870506537688 0.3354032268212687 0  0.367375468351841 0.3502978503657798 0  0.3502978503657798 0.367375468351841 0  0.3354032268212687 0.3863870506537689 0  0.322908794869358 0.4070553655912464 0  0.3129967514629171 0.4290790225914929 0  0.3058116365147896 0.4521368671424885 0  0.3014582251803892 0.4758926639489354 0  0.3 0.4999999999999999 0  0.3014582251803892 0.5241073360510646 0  0.3058116365147896 0.5478631328575115 0  0.3129967514629171 0.5709209774085071 0  0.3229087948693581 0.5929446344087538 0  0.3354032268212687 0.6136129493462312 0  0.3502978503657798 0.632624531648159 0  0.367375468351841 0.6497021496342202 0  0.3863870506537689 0.6645967731787313 0  0.4070553655912463 0.677091205130642 0  0.4290790225914929 0.6870032485370829 0  0.4521368671424885 0.6941883634852104 0  0.4758926639489354 0.6985417748196108 0  0.4999999999999999 0.7 0  0.5241073360510646 0.6985417748196108 0  0.5478631328575116 0.6941883634852104 0  0.5709209774085071 0.6870032485370829 0  0.5929446344087537 0.677091205130642 0  0.6136129493462312 0.6645967731787312 0  0.6326245316481591 0.6497021496342202 0  0.6497021496342202 0.632624531648159 0  0.6645967731787312 0.6136129493462312 0  0.677091205130642 0.5929446344087537 0  0.6870032485370829 0.5709209774085071 0  0.6941883634852104 0.5478631328575115 0  0 0.15 0  1 0.15 0  1 0.85 0  0 0.8500000000000001 0  0 0.075 0  1 0.075 0  1 0.925 0  0 0.925 0  0.5 0.8127595604293815 0  0.5069440078039168 0.190422209288238 0  0.25 0.3127595604293815 0  0.756944007803917 0.3095777907117619 0  0.756944007803917 0.6904222092882382 0  0.25 0.6872404395706185 0  0 0.225 0  0.4255768646051012 0.2241073097134061 0  1 0.7749999999999999 0  0.6773391559270888 0.2766774022734219 0  1 0.225 0  0.6755768646051011 0.7241073097134062 0  0 0.7750000000000001 0  0.5818971135297744 0.2287925518358889 0  0.8318971135297746 0.728792551835889 0  0.1659156081861886 0.7301636995921477 0  0.08376842746533225 0.2299656297760495 0  0.4236002201977974 0.7746535834185855 0  0.0840843918138115 0.7698363004078523 0  0.3340843918138113 0.7301636995921477 0  0.3340843918138114 0.2698363004078523 0  0.9159156081861887 0.2301636995921477 0  0.5840843918138116 0.7698363004078522 0  0.1659156081861887 0.2698363004078523 0  0.9162315725346678 0.7700343702239506 0  0.8340843918138114 0.2698363004078523 0  0.75 0.6146645247768686 0  0.5 0.1125158665330878 0  0.75 0.3874841334669124 0  0.2504983345544904 0.6122915843562002 0  0.2504983345544902 0.3877084156437999 0  0.5 0.8879783056303169 0  0.7005361650220154 0.3333055947145943 0  0.70416808765371 0.6599554817221275 0  0.449930214263529 0.1678187287522426 0  0.2247310981387008 0.7415600637745463 0  0.5155081196221678 0.7563797802146907 0  0.2752689018612993 0.2584399362254537 0  0.05605196690611226 0.8246131191226815 0  0.9439480330938878 0.1
[...]
<PointData  Scalars="Temperature"> 
<DataArray  type="Float64"  Name="Temperature"  format="ascii">2.8565022885836260e+01  2.9858559275827979e+01  2.9851578210758944e+01  2.9829026230489973e+01  2.9764513649390622e+01  2.9660445209686415e+01  2.9515513753080796e+01  2.9327311567384100e+01  2.9098232340783778e+01  2.8826464249752750e+01  2.8506692495610199e+01  2.8143197169813675e+01  2.7745340895941286e+01  2.7319933008701113e+01  2.6873377983011018e+01  2.6420003151502911e+01  2.5967586610347812e+01  2.5522414151274521e+01  2.5101432575967323e+01  2.4701809669485172e+01  2.4338908148632253e+01  2.4016626688193774e+01  2.3732719529916917e+01  2.3501312412818105e+01  2.3317614759185560e+01  2.3187326401867338e+01  2.3096691277398868e+01  2.3048284811372003e+01  2.3032304664110896e+01  2.2716115785624261e+01  2.2696312133168181e+01  2.2635732493194560e+01  2.2529688686058762e+01  2.2383830702745563e+01  2.2196750748193320e+01  2.1981950514642801e+01  2.1756091423445799e+01  2.1524790309974712e+01  2.1300446304000857e+01  2.1091804012227065e+01  2.0904030563805495e+01  2.0740333360549073e+01  2.0601333567236615e+01  2.0485241065890616e+01  2.0389661461519481e+01  2.0313407396080766e+01  2.0252573953429497e+01  2.0205558277587549e+01  2.0170036123865817e+01  2.0143804690521829e+01  2.0125075032136976e+01  2.0112044272774988e+01  2.0103446646516726e+01  2.0097891091623939e+01  2.0094718623408902e+01  2.0093665953326870e+01  2.0091703332865929e+01  2.0113710847334143e+01  2.0119954764626652e+01  2.0137377416748137e+01  2.0164113525547101e+01  2.0197609263517112e+01  2.0235426149311106e+01  2.0273666436766721e+01  2.0310256904610863e+01  2.0340728760154427e+01  2.0363456410480012e+01  2.0374048449497337e+01  2.0374448100188474e+01  2.0364567332473481e+01  2.0346937854876060e+01  2.0325054476828036e+01  2.0298435854588824e+01  2.0268294248121741e+01  2.0236375056542393e+01  2.0202874684806687e+01  2.0169518284352829e+01  2.0138955514878049e+01  2.0111073100071746e+01  2.0087685954650762e+01  2.0068830805030629e+01  2.0055020232183807e+01  2.0046471751803544e+01  2.0043388500468527e+01  2.0016325568077853e+01  2.0016634223250936e+01  2.0017283755539609e+01  2.0019101338712044e+01  2.0022047819112380e+01  2.0026296871866265e+01  2.0032339302938588e+01  2.0040689470699309e+01  2.0051927575646541e+01  2.0066830787618354e+01  2.0086326374365527e+01  2.0111144523211156e+01  2.0141328559022323e+01  2.0177391486211434e+01  2.0218166582288699e+01  2.0264014065405668e+01  2.0312437861257244e+01  2.0362675691079790e+01  2.0410247530401605e+01  2.0453745828225593e+01  2.0488537729626938e+01  2.0513464613926931e+01  2.0524082594783160e+01  2.0523643941546087e+01  2.0512319459274586e+01  2.0494911416296841e+01  2.0480256007489430e+01  2.0474237343321253e+01  2.0527351274409110e+01  2.0544645722223866e+01  2.0589958306901920e+01  2.0660348033515550e+01  2.0754942398975825e+01  2.0875001460989367e+01  2.1017758002763550e+01  2.1183307095175813e+01  2.1366175557205821e+01  2.1565930014351235e+01  2.1772367486011991e+01  2.1977720912021276e+01  2.2172201005624402e+01  2.2343229885693106e+01  2.2482851999867549e+01  2.2580375061985738e+01  2.2633259160100259e+01  2.2639504143286171e+01  2.2598321532128494e+01  2.2519730143270934e+01  2.2406941819987523e+01  2.2268458970197919e+01  2.2117927257700291e+01  2.1969625666381916e+01  2.1838634952463860e+01  2.1747010578143112e+01  2.1708903973069294e+01  2.1709813497532675e+01  2.3231065945103527e+01  2.3234519230799727e+01  2.3247685205917296e+01  2.3269557501842499e+01  2.3300941311002045e+01  2.3343074745420463e+01  2.3399637603001306e+01  2.3477394367142196e+01  2.3579013881037199e+01  2.3705895524414522e+01  2.3870159432441508e+01  2.4068508503052097e+01  2.4302720386939630e+01  2.4565137995497558e+01  2.4853616928574166e+01  2.5166119802972908e+01  2.5504225771036232e+01  2.5870483758587003e+01  2.6264377202628676e+01  2.6673103120142937e+01  2.7083195591234190e+01  2.7475045008776615e+01  2.7833619483698385e+01  2.8139353323870342e+01  2.8368791645491978e+01  2.8514690815180561e+01  2.0387693994163296e+01  2.0409395961261346e+01  2.0440785262595686e+01  2.0483221988671119e+01  2.0539555219205823e+01  2.0613863421305101e+01  2.0710603677993586e+01  2.0833430918102671e+01  2.0987852302448754e+01  2.1172626596576173e+01  2.1392639828855977e+01  2.1649758679326947e+01  2.1941191984883289e+01  2.2265187239135575e+01  2.2614782257170457e+01  2.2982403208964747e+01  2.3353953253649969e+01  2.3720896075923726e+01  2.4059477295038953e+01  2.4365978572893798e+01  2.4613524872275370e+01  2.4797543068216140e+01  2.4900713831013885e+01  2.4929403539701223e+01  2.4871067208017664e+01  2.4744479139094132e+01  2.4554244373902026e+01  2.4318721939740829e+01  2.4053839820323198e+01  2.3769096210440566e+01  2.3476345043385294e+01  2.3171311664741932e+01  2.2868932628064567e+01  2.2571034645501115e+01  2.2283108636827581e+01  2.2012884509271192e+01  2.1759351491919048e+01  2.1531210353807200e+01  2.1325807632842835e+01  2.1146480275381279e+01  2.0989936652516310e+01  2.0856094923127753e+01  2.0742248475278274e+01  2.0648636126789963e+01  2.0570790199167355e+01  2.0507432839711512e+01  2.0457320530874615e+01  2.0419327551696771e+01  2.0392531873786250e+01  2.0376724142115563e+01  2.0370792624851074e+01  2.0374843539527429e+01  2.9340640818425520e+01  2.0105715796793564e+01  2.0028336544517199e+01  2.2401966535288590e+01  2.9712631972625736e+01  2.0096601236801977e+01  2.0020055366355603e+01  2.1938426562986169e+01  2.0804454161561001e+01  2.2653690876328234e+01  2.5969531108518197e+01  2.0520744340382805e+01  2.0244059438111275e+01  2.2848582730067342e+01  2.8871205225464696e+01  2.3673845010932972e+01  2.0037434683961177e+01  2.0929676231229362e+01  2.0110664068972127e+01  2.0378677942021746e+01  2.2919718197258003e+01  2.1771071849220743e+01  2.0130226853747217e+01  2.2970547753546523e+01  2.8522685140221594e+01  2.1266945540258202e+01  2.2910396824434716e+01  2.2031156430687954e+01  2.4959310349114062e+01  2.0162189742336157e+01  2.0587284570879717e+01  2.7389993823438939e+01  2.0057686115765623e+01  2.0307015315405920e+01  2.0296146862698752e+01  2.2824145945585585e+01  2.0479712732056242e+01  2.3411434213667821e+01  2.5437741648528188e+01  2.0641052680715696e+01  2.0715375975765816e+01  2.0346442851806732e+01  2.3352187164269314e+01  2.2657529685096311e+01  2.0854064505469356e+01  2.5878117509965538e+01  2.2577829659589892e+01  2.0128231959724559e+01  2.9060585858054296e+01  2.0037652111946059e+01  2.2860236005104401e+01  2.0262622041944503e+01  2.0651456816424030e+01  2.0979324551518065e+01  2.3212150271615588e+01  2.6638318057670187e+01  2.2542538942266891e+01  2.5161864190681520e+01  2.0600667647686972e+01  2.2860139801119619e+01  2.0427665760134229e+01  2.0340967821600341e+01  2.4972470300505826e+01  2.4000400199993596e+01  2.0499159315789598e+01  2.0543261621316287e+01  2.6667262269826743e+01  2.2377252831679002e+01  2.2100094039841434e+01  2.0216785294740987e+01  2.0354786706312126e+01  2.1268583967639170e+01  2.4154001859556207e+01  2.4587316575245470e+01  2.0439262509538807e+01  2.0534895837533185e+01  2.1263450320669843e+01  2.0187307838105841e+01  2.0444370569391335e+01  2.0382278784305775e+01  2.2872355603501799e+01  2.4497166088898826e+01  2.1598333426840487e+01  2.1702251073178083e+01  2.2281211909117516e+01  2.0088416476344822e+01  2.0087056113816029e+01  2.1019654225680075e+01  2.8067898945660573e+01  2.3084008673871093e+01  2.0190116664183126e+01  2.2810526675513302e+01  2.7921904776267599e+01  2.3122119896100585e+01  2.0125144982392484e+01  2.0239796826105572e+01  2.0047706260673312e+01  2.8581874317839176e+01  2.0112704454275370e+01  2.0028073942917871e+01  2.9419154583853910e+01  2.2288913266429155e+01  2.0394558465478710e+01  2.0178947766410086e+01  2.2405198552344043e+01  2.0311479665211351e+01  2.0512211223755358e+01  2.2149843343309140e+01  2.7276519467035492e+01  2.0169572708467488e+01  2.4677738229996159e+01  2.3245636027685489e+01  2.2657328926446723e+01  2.8707038118877524e+01  2.0056664491847226e+01  2.3445799913867571e+01  2.6040470056276639e+01  2.0654511709823144e+01  2.0134866405651540e+01  2.5456037917165400e+01  2.2976147941370641e+01  2.0881751521933889e+01  2.0984468896373016e+01  2.1267973666950709e+01  2.3386336567398693e+01  2.0447356002963204e+01  2.4017518250745592e+01  2.0345361962158091e+01  2.0793303431633980e+01  2.1249805978320090e+01  2.1775175106597739e+01  2.0701457234934878e+01  2.0139042099603412e+01  2.1571217913463325e+01  2.2704487920397881e+01  2.5230180101964045e+01  2.2033734116378845e+01  2.7282249261705047e+01  2.0271383160645573e+01  2.0665250454542843e+01  2.3116565069895319e+01  2.8855222237990517e+01  2.0332529390289984e+01  2.0126883014221345e+01  2.2839430581669813e+01  2.0720620541417148e+01  2.2662742469052386e+01  2.0108783741503736e+01  2.0397751682853919e+01  2.0037599761997701e+01  2.3222227261415533e+01  2.0548877114910688e+01  2.0610567374088362e+01  2.2906900516925226e+01  2.9110255849602353e+01  2.0291760975384783e+01  2.0348626016215412e+01  2.0267241363434032e+01  2.3784312195417538e+01  2.5583178875759451e+01  2.3042450090209162e+01  2.5084519458011094e+01  2.3163443236490959e+01  2.3043395811955271e+01  2.2652995150618565e+01  2.0407569580091803e+01  2.0515913938214290e+01  2.0560576519865982e+01  2.0546825234167546e+01  2.0664326083383290e+01  2.0032990747043900e+01  2.3134023689807528e+01  2.0023954673428094e+01  2.0111750312303165e+01  2.8662786820629975e+01  2.0092999976039785e+01  2.9820929840398957e+01  2.0101297955483272e+01  2.0102973534545793e+01  2.9546901638493406e+01  2.0017334202553524e+01  2.1775496575286091e+01  2.0041420165464984e+01  2.2155588302968063e+01  2.2058712482858223e+01  2.5036558810648074e+01  2.3585710201237269e+01  2.2918177755755671e+01  2.5401080444511305e+01  2.0810003885363393e+01  2.0064205501189065e+01  2.2321368467793164e+01  2.6598413038716831e+01  2.0207206174179170e+01  2.0245711477702294e+01  2.1040850712203575e+01  2.0040920191413512e+01  2.0709562474767075e+01  2.2439529754496235e+01  2.3163659757812074e+01  2.5894781054049350e+01  2.7884942618300009e+01  2.1511797429611004e+01  2.2451497723663834e+01  2.0517727316178668e+01  2.0453899293399708e+01  2.0797822740835105e+01  2.0377066229526150e+01  2.0410850318659065e+01  2.0022823561002884e+01  2.9613587709681852e+01  2.8339178831088738e+01  2.0171718613794781e+01  2.2562186519436327e+01  2.6490202065295488e+01  2.0237571948640486e+01  2.2082458117305126e+01  2.0331002264178757e+01  2.0152545989736357e+01  2.0740685979341141e+01  2.4123629698120688e+01  2.0453009449592894e+01  2.1439487606814989e+01  2.9765186014684332e+01  2.0097401987151766e+01  2.0018921266529048e+01  2.1854868693005901e+01  2.1468538081724461e+01  2.0354385364870744e+01  2.3258455157138133e+01  2.2410126015682991e+01  2.2531710797445491e+01  2.0131391104124138e+01  2.0111802148756652e+01  2.1766464451971697e+01  2.9009914150451408e+01  2.8804049183846921e+01  2.9201057176999342e+01  2.3724194346659711e+01  2.3500554119974016e+01  2.8314100485810094e+01  2.0947034923852549e+01  2.3260487481745908e+01  2.2680829778957385e+01  2.0214833818864246e+01  2.0834279955206053e+01  2.0532945324798753e+01  2.4441635463873418e+01  2.0519591114424180e+01  2.0031944840875568e+01  2.0381017873530197e+01  2.0295545233230772e+01  2.1817547116847514e+01  2.0500115416272834e+01  2.0302102568732138e+01  2.2959785075852292e+01  2.2779688103905418e+01  2.0383859168475233e+01  2.0446313501297873e+01  2.4657865606633678e+01  2.4964454723785916e+01  2.0785578354317096e+01  2.0104287515575209e+01  2.0552211411448781e+01  2.1202396597655273e+01  2.5411825103536817e+01  2.1891062932744031e+01  2.6947604979360555e+01  2.2308672875049702e+01  2.2486112594146430e+01  2.2861926587310688e+01  2.5755392726330225e+01  2.6153595558063557e+01  2.2686321837021133e+01  2.0590088963469661e+01  2.0546983525394015e+01  2.5544604963505819e+01  2.3098565283091805e+01  2.4969020007630295e+01  2.6845062444461892e+01  2.2444747894004735e+01  2.3426751358033783e+01  2.0690628659785130e+01  2.0377379830447772e+01  2.0346918923762559e+01  2.4229487862359370e+01  2.4308958379343174e+01  2.7697432414360257e+01  2.0319810184888201e+01  2.0282699381044790e+01  2.0258190247159963e+01  2.3757005530093082e+01  2.0385330919734063e+01  2.0841817548264402e+01  2.3799402763747921e+01  2.0939052375363662e+01  2.1099650668595267e+01  2.0623561269387036e+01  2.2812121449370792e+01  2.2762299421642524e+01  2.0727752020870913e+01  2.1047066301519145e+01  2.0045911629186630e+01  2.8327985247310757e+01  2.0341427483599865e+01  2.2120785106954905e+01  2.0097414815374492e+01  2.0074211243697587e+01  2.0426847873870170e+01  2.0327167348401616e+01  2.0274816961217550e+01  2.2704315838969865e+01  2.4280765273344517e+01  2.4573519302021428e+01  2.0449213363958510e+01  2.0502188530067464e+01  2.1560827214879168e+01  2.1825989643457085e+01  2.2659739855556531e+01  2.1513519777724625e+01  2.0199805110330107e+01  2.0321218831075011e+01  2.0147152956648302e+01  2.2729771199429656e+01  2.2098749331853373e+01  2.0016470273809972e+01  2.0092630001368047e+01  2.9855627573584893e+01  2.1708982872785661e+01  2.2982646296996879e+01  2.1502321706032912e+01  2.4632717436569632e+01  2.1108124556781192e+01  2.0399405740458942e+01  2.0231733639567537e+01  2.2699647578144631e+01  2.3023817194884504e+01  2.5228265428996931e+01  2.0412600013210312e+01  2.0111484256228422e+01  2.0096895637617852e+01  2.0074553001865137e+01  2.0113383157267592e+01  2.0605427388662061e+01  2.4912283210229901e+01  2.3660595483721494e+01  2.0510196785550391e+01  2.0481076514180316e+01  2.0590447024233256e+01  2.0507089866393105e+01  2.0310443089006981e+01  2.4075625342854334e+01  2.3838427823840661e+01  2.7583467200870125e+01  2.5009114081495863e+01  2.1462210432043584e+01  2.8218684417390094e+01  2.3058503336755102e+01  2.1823801066671678e+01  2.0456490989242120e+01  2.8764067514592288e+01  2.3493799071196580e+01  2.0208291347029473e+01  2.0226517682935309e+01  2.0044277219747485e+01  2.2796279434250327e+01  2.7079101014282070e+01  2.2197673087095357e+01  2.2840018592803400e+01  2.2970607370253344e+01  2.2917506543710090e+01  2.4671637437667162e+01  2.0413757251909505e+01  2.9227189061851583e+01  2.0067733780987659e+01  2.5246879860007315e+01  2.1172707933162581e+01  2.2791441717005963e+01  2.0114399288220376e+01  2.0256519564316431e+01  2.0888256974527767e+01  2.4778267349363453e+01  2.0518556803842397e+01  2.6441594379174596e+01  2.0393377907358893e+01  2.0040753576439776e+01  2.3229132987288668e+01  2.1112314542659572e+01  2.4834461875797846e+01  2.0186595547709025e+01  2.2845199977432252e+01  2.0094318466575892e+01  2.1755576461563908e+01  2.9829201009987198e+01  2.0017197984572569e+01  2.2491030096036358e+01  2.0471894594709667e+01  2.0080766833591220e+01  2.0280909451477232e+01  2.3118796781026269e+01  2.1001969501817342e+01  2.0150682330029095e+01  2.0583777672731934e+01  2.8456803306768307e+01  2.3324858671301509e+01  2.3047665974596647e+01  2.2724964771731280e+01  2.0372162629395874e+01  2.1659757014581292e+01  2.1932222617569820e+01  2.3200118293856352e+01  2.0127171166193317e+01  2.2958353158614546e+01  2.0383699545379006e+01  2.2376229382476094e+01  2.6158718385896019e+01  2.3338718800463823e+01  2.0166968620358695e+01  2.6276784238777150e+01  2.0924364499760941e+01  2.0152532828190683e+01  2.0222087998129677e+01  2.0217939902301275e+01  2.0614059755761257e+01  2.0609977489512705e+01  2.0048885302485434e+01  2.2594209374045626e+01  2.7021825159691353e+01  2.2099297240026516e+01  2.0728824288688489e+01  2.0367964481256507e+01  2.3302834322260409e+01  2.2770335719169331e+01  2.0035904752357226e+01  2.5746301520581660e+01  2.2734433608956486e+01  2.2765972638759912e+01  2.0518256325060324e+01  2.2981727976178917e+01  2.2409877688507621e+01  2.7525588730792425e+01  2.0154483393384158e+01  2.2550974867345928e+01  2.3041036141761865e+01  2.0138805378783740e+01  2.0111423636841291e+01  2.0116381807111168e+01  2.0047102597221528e+01  2.9034785691523020e+01  2.1402423478142779e+01  2.5922678548926594e+01  2.0584405353922353e+01  2.2563444903195489e+01  2.2007988042482889e+01  2.1299658684881841e+01  2.3148623942583800e+01  2.5198813168513073e+01  2.6328196770989926e+01  2.0220052576554870e+01  2.2167163918677584e+01  2.0115769849927680e+01  2.0125487593186907e+01  2.3268470917390090e+01  2.1185389132240548e+01  2.8014114551239015e+01  2.0179113025680323e+01  2.7682265449581003e+01  2.7990925558974194e+01  2.0053979329999756e+01  2.0044676976675230e+01  2.8579576620439862e+01  2.8666727725720531e+01  2.4318349636949730e+01  2.1122839616781953e+01  2.0499918195096981e+01  2.0426265071170317e+01  2.1172141361845089e+01  2.0941859035100542e+01  2.0548367488453469e+01  2.0032691417203278e+01  2.0592065158762747e+01  2.1420740377334411e+01  2.5187321312798112e+01  2.4770815374071450e+01  2.0375886330943199e+01  2.0408511514484925e+01  2.0529971739096222e+01  2.1102095861239111e+01  2.0305215419158262e+01  2.4995773207329204e+01  2.3213134279443363e+01  2.2691319742436356e+01  2.3578277076001193e+01  2.3368880692870622e+01  2.5754517397034054e+01  2.0026085476265362e+01  2.9447848063017908e+01  2.9352315482478986e+01  2.9353355863283500e+01  2.0032406555791940e+01  2.0026046911680080e+01  2.0124392889659081e+01  2.2575584326416624e+01  2.0173735938452019e+01  2.3772617224035884e+01  2.0256552566101586e+01  2.0119994091272776e+01  2.0108567961847307e+01  2.2440941443546695e+01  2.2276560368410095e+01  2.2368059121175925e+01  2.0512571279889169e+01  2.9514619545836947e+01  2.2184523673147297e+01  2.0104538023540279e+01  2.0063808040305883e+01  2.2272804291306784e+01  2.0749107869924480e+01  2.1963869063091977e+01  2.5589235519418118e+01  2.3202137473162271e+01  2.0112823316108113e+01  2.3203645809457633e+01  2.0372823098187038e+01  2.0195772774459908e+01  2.0209175560228800e+01  2.0146850158694370e+01  2.6870723402483264e+01  2.0741864503073796e+01  2.8613620820936958e+01  2.0162858249181685e+01  2.2610024700706632e+01  2.0187493196203992e+01  2.3587566881719663e+01  2.2289431197978772e+01  2.0027942652168285e+01  2.0869059200421169e+01  2.8465036539136168e+01  2.0238959422192657e+01  2.0091900944780033e+01  2.0455861787105849e+01  2.4886002379516817e+01  2.2219961702788037e+01  2.0361399848542661e+01  2.0911220559748823e+01  2.0661927124919661e+01  2.0566107835995947e+01  2.6987196619293236e+01  2.4448459530648424e+01  2.1886523653863282e+01  2.0650182303272548e+01  2.0264835943837848e+01  2.0471747966433721e+01  2.0666243246781082e+01  2.0670067333107500e+01  2.2636862103325608e+01  2.3321884215182877e+01  2.2094912620616618e+01  2.0116247493629633e+01  2.3172373135874661e+01  2.0176900508014914e+01  2.5745779091544726e+01  2.2964694288613565e+01  2.3040403134766592e+01  2.2962354760738570e+01  2.3311491461369030e+01  2.0345989790757038e+01  2.1377179583574080e+01  2.0339879298353257e+01  2.0335333775200002e+01  2.0289652603013955e+01  2.0828259199905659e+01  2.0051929845688964e+01  2.0146115554485288e+01  2.1008840215925481e+01  2.8617699698968526e+01  2.8902355988176978e+01  2.7617864452962827e+01  2.0851910900994987e+01  2.2320370380203837e+01  2.2123244254892313e+01  2.0363027857677256e+01  2.0480839054818041e+01  2.7164446221389149e+01  2.4538240829913875e+01  2.0058335968091168e+01  2.3117153575538275e+01  2.3525076020167464e+01  2.0264205603479560e+01  2.6789836737556435e+01  2.0483702759803435e+01  2.3789115882633233e+01  2.0417584569616402e+01  2.3990020521704775e+01  2.1232106857293097e+01  2.1317920229673046e+01  2.0552131098593609e+01  2.5285134805540462e+01  2.0685931982288935e+01  2.0339324495116841e+01  2.0584097277095051e+01  2.0535300311568538e+01  2.4919854676590205e+01  2.0690318088382540e+01  2.0909038872179245e+01  2.4204429610935541e+01  2.1032843452291750e+01  2.0362745029258342e+01  2.3458309437642743e+01  2.0024886452216300e+01  2.9487063513605005e+01  2.337