<?xml version="1.0"?>
<VTKFile type="UnstructuredGrid"  version="0.1"  >
<UnstructuredGrid>
<Piece  NumberOfPoints="2331" NumberOfCells="4248">
<Points>
<DataArray  type="Float64"  NumberOfComponents="3"  format="ascii">0 0.3 0  0 0 0  0.04999999999999999 0 0  0.0514582251803892 0.02410733605106462 0  0.0558116365147896 0.04786313285751154 0  0.06299675146291706 0.07092097740850717 0  0.07290879486935808 0.09294463440875382 0  0.08540322682126872 0.1136129493462312 0  0.1002978503657798 0.132624531648159 0  0.117375468351841 0.1497021496342203 0  0.1363870506537689 0.1645967731787313 0  0.1570553655912463 0.177091205130642 0  0.1790790225914929 0.187003248537083 0  0.2021368671424885 0.1941883634852104 0  0.2258926639489354 0.1985417748196108 0  0.25 0.2 0  0.2741073360510646 0.1985417748196108 0  0.2978631328575116 0.1941883634852104 0  0.3209209774085071 0.187003248537083 0  0.3429446344087537 0.177091205130642 0  0.3636129493462312 0.1645967731787313 0  0.3826245316481591 0.1497021496342202 0  0.3997021496342202 0.132624531648159 0  0.4145967731787313 0.1136129493462312 0  0.427091205130642 0.09294463440875371 0  0.4370032485370829 0.07092097740850713 0  0.4441883634852104 0.04786313285751155 0  0.4485417748196108 0.02410733605106461 0  0.45 0 0  0.55 0 0  0.5514582251803892 0.02410733605106462 0  0.5558116365147896 0.04786313285751154 0  0.5629967514629171 0.07092097740850717 0  0.5729087948693581 0.09294463440875382 0  0.5854032268212688 0.1136129493462312 0  0.6002978503657798 0.132624531648159 0  0.617375468351841 0.1497021496342203 0  0.6363870506537689 0.1645967731787313 0  0.6570553655912463 0.177091205130642 0  0.6790790225914929 0.187003248537083 0  0.7021368671424885 0.1941883634852104 0  0.7258926639489354 0.1985417748196108 0  0.75 0.2 0  0.7741073360510646 0.1985417748196108 0  0.7978631328575116 0.1941883634852104 0  0.8209209774085071 0.187003248537083 0  0.8429446344087537 0.177091205130642 0  0.8636129493462312 0.1645967731787313 0  0.8826245316481591 0.1497021496342202 0  0.8997021496342202 0.132624531648159 0  0.9145967731787312 0.1136129493462312 0  0.927091205130642 0.09294463440875371 0  0.9370032485370829 0.07092097740850713 0  0.9441883634852104 0.04786313285751155 0  0.9485417748196108 0.02410733605106461 0  0.95 0 0  1 0 0  1 0.3 0  0.9758926639489353 0.3014582251803892 0  0.9521368671424885 0.3058116365147896 0  0.9290790225914928 0.3129967514629171 0  0.9070553655912461 0.3229087948693581 0  0.8863870506537688 0.3354032268212687 0  0.867375468351841 0.3502978503657798 0  0.8502978503657798 0.367375468351841 0  0.8354032268212687 0.3863870506537689 0  0.822908794869358 0.4070553655912464 0  0.8129967514629171 0.4290790225914929 0  0.8058116365147896 0.4521368671424885 0  0.8014582251803892 0.4758926639489354 0  0.8 0.4999999999999999 0  0.8014582251803892 0.5241073360510646 0  0.8058116365147896 0.5478631328575115 0  0.8129967514629171 0.5709209774085071 0  0.8229087948693581 0.5929446344087538 0  0.8354032268212688 0.6136129493462312 0  0.8502978503657798 0.632624531648159 0  0.867375468351841 0.6497021496342202 0  0.8863870506537689 0.6645967731787313 0  0.9070553655912463 0.677091205130642 0  0.9290790225914929 0.6870032485370829 0  0.9521368671424885 0.6941883634852104 0  0.9758926639489354 0.6985417748196108 0  1 0.7 0  1 1 0  0.95 1 0  0.9485417748196108 0.9758926639489353 0  0.9441883634852104 0.9521368671424885 0  0.9370032485370829 0.9290790225914928 0  0.927091205130642 0.9070553655912463 0  0.9145967731787312 0.8863870506537688 0  0.8997021496342201 0.8673754683518409 0  0.882624531648159 0.8502978503657798 0  0.863612949346231 0.8354032268212686 0  0.8429446344087537 0.822908794869358 0  0.8209209774085071 0.8129967514629171 0  0.7978631328575114 0.8058116365147896 0  0.7741073360510646 0.8014582251803892 0  0.75 0.8 0  0.7258926639489353 0.8014582251803892 0  0.7021368671424885 0.8058116365147896 0  0.6790790225914928 0.8129967514629171 0  0.6570553655912461 0.8229087948693581 0  0.6363870506537688 0.8354032268212688 0  0.617375468351841 0.8502978503657798 0  0.6002978503657798 0.867375468351841 0  0.5854032268212687 0.8863870506537689 0  0.572908794869358 0.9070553655912463 0  0.5629967514629171 0.9290790225914929 0  0.5558116365147896 0.9521368671424885 0  0.5514582251803892 0.9758926639489355 0  0.55 0.9999999999999999 0  0.45 0.9999999999999999 0  0.4485417748196108 0.9758926639489353 0  0.4441883634852104 0.9521368671424885 0  0.4370032485370829 0.9290790225914928 0  0.427091205130642 0.9070553655912463 0  0.4145967731787313 0.8863870506537688 0  0.3997021496342201 0.8673754683518409 0  0.382624531648159 0.8502978503657798 0  0.363612949346231 0.8354032268212686 0  0.3429446344087536 0.822908794869358 0  0.3209209774085071 0.8129967514629171 0  0.2978631328575115 0.8058116365147896 0  0.2741073360510646 0.8014582251803892 0  0.25 0.8 0  0.2258926639489353 0.8014582251803892 0  0.2021368671424885 0.8058116365147896 0  0.1790790225914928 0.8129967514629171 0  0.1570553655912462 0.8229087948693581 0  0.1363870506537688 0.8354032268212688 0  0.117375468351841 0.8502978503657798 0  0.1002978503657797 0.867375468351841 0  0.08540322682126869 0.8863870506537689 0  0.07290879486935797 0.9070553655912463 0  0.06299675146291703 0.9290790225914929 0  0.05581163651478957 0.9521368671424885 0  0.0514582251803892 0.9758926639489355 0  0.04999999999999999 0.9999999999999999 0  0 1 0  -0 0.7000000000000001 0  0.0241073360510646 0.6985417748196108 0  0.04786313285751161 0.6941883634852104 0  0.07092097740850711 0.6870032485370829 0  0.09294463440875372 0.677091205130642 0  0.1136129493462312 0.6645967731787312 0  0.1326245316481591 0.6497021496342202 0  0.1497021496342202 0.632624531648159 0  0.1645967731787313 0.6136129493462312 0  0.177091205130642 0.5929446344087537 0  0.187003248537083 0.5709209774085071 0  0.1941883634852104 0.5478631328575115 0  0.1985417748196108 0.5241073360510646 0  0.2 0.5 0  0.1985417748196108 0.4758926639489353 0  0.1941883634852104 0.4521368671424885 0  0.1870032485370829 0.4290790225914928 0  0.177091205130642 0.4070553655912463 0  0.1645967731787313 0.3863870506537688 0  0.1497021496342202 0.3673754683518409 0  0.132624531648159 0.3502978503657798 0  0.113612949346231 0.3354032268212686 0  0.09294463440875361 0.322908794869358 0  0.07092097740850711 0.3129967514629171 0  0.04786313285751148 0.3058116365147896 0  0.02410733605106464 0.3014582251803892 0  0.6985417748196108 0.5241073360510646 0  0.7 0.5 0  0.6985417748196108 0.4758926639489353 0  0.6941883634852104 0.4521368671424885 0  0.6870032485370829 0.4290790225914928 0  0.677091205130642 0.4070553655912463 0  0.6645967731787312 0.3863870506537688 0  0.6497021496342201 0.3673754683518409 0  0.632624531648159 0.3502978503657798 0  0.613612949346231 0.3354032268212686 0  0.5929446344087537 0.322908794869358 0  0.5709209774085071 0.3129967514629171 0  0.5478631328575114 0.3058116365147896 0  0.5241073360510646 0.3014582251803892 0  0.4999999999999999 0.3 0  0.4758926639489353 0.3014582251803892 0  0.4521368671424885 0.3058116365147896 0  0.4290790225914928 0.3129967514629171 0  0.4070553655912462 0.3229087948693581 0  0.3863870506537688 0.3354032268212687 0  0.367375468351841 0.3502978503657798 0  0.3502978503657798 0.367375468351841 0  0.3354032268212687 0.3863870506537689 0  0.322908794869358 0.4070553655912464 0  0.3129967514629171 0.4290790225914929 0  0.3058116365147896 0.4521368671424885 0  0.3014582251803892 0.4758926639489354 0  0.3 0.4999999999999999 0  0.3014582251803892 0.5241073360510646 0  0.3058116365147896 0.5478631328575115 0  0.3129967514629171 0.5709209774085071 0  0.3229087948693581 0.5929446344087538 0  0.3354032268212687 0.6136129493462312 0  0.3502978503657798 0.632624531648159 0  0.367375468351841 0.6497021496342202 0  0.3863870506537689 0.6645967731787313 0  0.4070553655912463 0.677091205130642 0  0.4290790225914929 0.6870032485370829 0  0.4521368671424885 0.6941883634852104 0  0.4758926639489354 0.6985417748196108 0  0.4999999999999999 0.7 0  0.5241073360510646 0.6985417748196108 0  0.5478631328575116 0.6941883634852104 0  0.5709209774085071 0.6870032485370829 0  0.5929446344087537 0.677091205130642 0  0.6136129493462312 0.6645967731787312 0  0.6326245316481591 0.6497021496342202 0  0.6497021496342202 0.632624531648159 0  0.6645967731787312 0.6136129493462312 0  0.677091205130642 0.5929446344087537 0  0.6870032485370829 0.5709209774085071 0  0.6941883634852104 0.5478631328575115 0  0 0.15 0  1 0.15 0  1 0.85 0  0 0.8500000000000001 0  0 0.075 0  1 0.075 0  1 0.925 0  0 0.925 0  0.5 0.8127595604293815 0  0.5069440078039168 0.190422209288238 0  0.25 0.3127595604293815 0  0.756944007803917 0.3095777907117619 0  0.756944007803917 0.6904222092882382 0  0.25 0.6872404395706185 0  0 0.225 0  0.4255768646051012 0.2241073097134061 0  1 0.7749999999999999 0  0.6773391559270888 0.2766774022734219 0  1 0.225 0  0.6755768646051011 0.7241073097134062 0  0 0.7750000000000001 0  0.5818971135297744 0.2287925518358889 0  0.8318971135297746 0.728792551835889 0  0.1659156081861886 0.7301636995921477 0  0.08376842746533225 0.2299656297760495 0  0.4236002201977974 0.7746535834185855 0  0.0840843918138115 0.7698363004078523 0  0.3340843918138113 0.7301636995921477 0  0.3340843918138114 0.2698363004078523 0  0.9159156081861887 0.2301636995921477 0  0.5840843918138116 0.7698363004078522 0  0.1659156081861887 0.2698363004078523 0  0.9162315725346678 0.7700343702239506 0  0.8340843918138114 0.2698363004078523 0  0.75 0.6146645247768686 0  0.5 0.1125158665330878 0  0.75 0.3874841334669124 0  0.2504983345544904 0.6122915843562002 0  0.2504983345544902 0.3877084156437999 0  0.5 0.8879783056303169 0  0.7005361650220154 0.3333055947145943 0  0.70416808765371 0.6599554817221275 0  0.449930214263529 0.1678187287522426 0  0.2247310981387008 0.7415600637745463 0  0.5155081196221678 0.7563797802146907 0  0.2752689018612993 0.2584399362254537 0  0.05605196690611226 0.8246131191226815 0  0.9439480330938878 0.1
[...]
<PointData  Scalars="Temperature"> 
<DataArray  type="Float64"  Name="Temperature"  format="ascii">-1.4002858353797919e+32  7.6809794100170168e+27  2.2869972269811890e+28  -3.6512163089939962e+28  1.5875296120235814e+29  -1.2530508298761607e+30  3.6490329374310906e+30  -3.1748765992948405e+31  -4.3293275110600054e+32  3.5668618235405950e+32  5.2878703814475364e+34  6.4193981826375918e+35  4.9927157764549768e+36  3.2773657430571300e+37  -1.6715007258029052e+38  -7.0036994062922807e+38  6.5129030076103032e+38  -1.2075021292477703e+40  1.7459709753700706e+40  4.0415048473287084e+40  -8.7324070823254213e+41  -2.3882337181906222e+42  -1.4242490624909981e+42  -4.3947266722331525e+42  2.3947301947463534e+42  5.8242428042724551e+41  2.8608032004067407e+41  -7.3178021478800396e+40  5.8801766051307146e+40  1.4338911178255442e+42  -2.6263732498048784e+42  4.7918250472916683e+42  -9.0661925505373497e+43  5.3275712468662221e+44  5.8766665260436329e+45  -3.9587012990019416e+45  -1.5654427705362661e+47  -2.3075696917440215e+47  -9.5223261542866776e+47  2.4343451831144516e+48  -3.5781867282183379e+49  2.9306761364926959e+49  -7.4865334211155058e+47  -1.1289140754385490e+48  -7.6095229544296757e+48  2.4088943520002479e+47  2.4543150138990780e+48  -5.0890373531811156e+46  1.4062390731671422e+47  -6.3783456074256733e+45  9.2761644033504261e+45  -2.9456051284421859e+45  1.6533764954571737e+44  6.2593440875975291e+43  5.5905625113355220e+42  -1.4779796676833241e+42  5.6624723130136441e+40  -1.3472216087732763e+49  -3.9353124594806159e+49  -2.8190267576979366e+50  -1.8841586969055021e+51  -1.0207146275941670e+52  -8.9630254151694348e+52  -1.9809202593340304e+53  9.9346660511354335e+52  -1.8169165340785085e+55  9.6321897351702513e+55  -2.6729719736243912e+56  5.5230406507066155e+57  -2.2127188836924872e+58  -1.9189887355579373e+59  1.3076113950849426e+60  -4.2216590697212083e+60  2.8701971125273616e+61  -2.4482925065851872e+62  2.2016939989071834e+62  -7.4893035703061847e+63  -1.6119408234974041e+65  -2.9770851840436553e+65  -4.7536909780361917e+66  7.0649013882655329e+65  8.5905427587460592e+67  -1.6567447817038329e+68  -5.9900549340554504e+68  -4.0971822366868477e+65  2.1698548857070231e+66  -3.1441720164692683e+66  -2.9930419310395933e+66  -5.1148444300228505e+67  5.9495949605952651e+67  -2.8662755265875776e+68  1.7651594317257388e+68  -1.3805342312911194e+66  -2.2406334749330387e+67  -7.3118967939531029e+66  1.2034771023907380e+66  1.1340741194100783e+65  1.5947961774966142e+63  1.0166477777108196e+63  5.0604396832575725e+61  2.4636284639107967e+60  -1.8203720406733890e+60  6.9253231780631462e+58  3.1275188243481587e+58  -9.5187997613654762e+57  5.5957684969160656e+56  -2.6093046931886114e+56  2.1025237350750227e+55  -8.9142494066368228e+54  -2.6383289888679308e+53  8.2428447617412297e+52  4.9165769120196252e+52  1.0847243070531037e+51  -3.0322577773695658e+50  4.9787011971394242e+51  -6.4053847917579880e+51  -8.2237474478254361e+51  -3.2796382266276736e+51  4.1232692195051575e+51  2.9105838187015249e+51  -2.4232120884733231e+50  -7.8016842984855736e+49  1.3985436401371577e+49  -3.5170680131504676e+48  5.7394717486513153e+47  8.3141873097451552e+46  -1.8418278449305999e+46  2.9668444466383872e+45  3.7755836891858661e+43  -1.3008984342110210e+43  -1.3444874953608183e+42  2.2519087074289607e+39  -1.4138953124041125e+40  1.0961482485530934e+39  6.9834762143979342e+37  2.7724293359743952e+37  7.5803811896385673e+36  3.5271330859977252e+35  -5.4303382885311596e+35  -5.5884319586591681e+35  3.4811752848303158e+38  -5.0495111931931627e+38  -5.9763786441910853e+39  1.9508117141005304e+40  2.7483962170541729e+41  7.6197523983271513e+41  -6.3730111039724808e+42  -1.1358711807981427e+43  5.5280332771616136e+42  -2.6197349235511176e+43  -4.3972817212980018e+42  6.9601961853012596e+41  -5.1812387478481806e+41  1.8606592260661391e+41  7.5663495160787034e+40  -1.2858308894908658e+40  3.1772780766539899e+39  -9.1818719195128747e+38  2.8469966009996136e+38  3.2550984942272052e+37  -1.5986789966775249e+36  5.7403036755735475e+35  2.0586913474248024e+35  -3.3242090436068648e+33  4.6255687981380869e+33  6.2137949056943469e+32  5.4203412185311933e+56  -1.0011817001582997e+58  -2.4995243864850057e+56  -9.1537166591282562e+56  -1.6329864061055142e+55  7.8721523323683986e+54  -1.2409971960390373e+54  8.1137954654201317e+51  2.8869317561650559e+52  9.1019084064008793e+50  3.8544131595907583e+50  5.0965829332740116e+48  -1.1173243860800312e+49  -2.7292489147053592e+48  -5.3236573560446295e+46  -3.5432448208573508e+46  -2.7362749245329130e+45  2.1407064601288479e+45  1.5897836124323008e+44  -2.8298800864742341e+42  1.7408766968374806e+42  1.1815004904413334e+41  -8.0240835232178178e+39  2.8285770988442946e+39  4.3862867498298582e+39  6.7925938048925175e+40  -4.5675589619948132e+41  2.0572875498247645e+42  -1.5637172283594428e+43  2.0312384022712407e+43  1.0234845686575473e+44  1.1152439601974560e+46  -2.9595213607822698e+45  -1.2952190922558148e+48  5.6807895703759011e+48  2.0649530401296638e+49  -5.5050231532307740e+50  -2.1677617857131236e+51  -9.7484379386180881e+51  -1.0991359610034241e+52  -7.1900597432815059e+53  -1.1255905841104479e+54  -1.0671278631963597e+56  1.5678545495740636e+56  -4.9810722415637156e+57  4.8103658061471934e+57  1.7225027683661254e+58  2.7303374583550788e+58  1.3783547192330189e+57  9.6030790577590438e+58  -1.5306634511498566e+59  -1.2214139058455130e+58  1.9592000838001631e+30  1.3800466214189532e+46  4.5832570510437703e+70  -3.7074694324303889e+37  5.8451250807395103e+27  -4.1392882206820050e+43  8.8508382568214634e+67  7.5072268538176918e+36  3.2767137037552414e+54  -2.6768218025643878e+45  5.0027453027373493e+37  9.2315161108159151e+52  -1.6654304358321443e+62  -1.8126393172216551e+46  -1.3275976466695147e+31  1.3707578048037629e+44  4.4044463149933390e+70  -4.7310263539668632e+49  -1.0510169770924176e+48  -5.5758273217190366e+59  -9.7627474951346846e+38  1.0965785807818596e+48  -1.6371501513705639e+65  -6.7516505113962959e+42  -2.5606745613840344e+33  1.3086168438455285e+52  -5.0699192230924977e+40  -7.7209071592217014e+48  8.3240823739312634e+41  -2.6461135861609881e+49  -4.8746020225466929e+57  -3.9726238931464963e+36  -3.0223403283524609e+68  -1.4762033921845568e+50  9.3502776760105549e+60  5.3975018235394625e+43  2.9656715822026395e+54  -2.8223347187583915e+45  4.9362932455567033e+38  6.0617595720882162e+53  2.2259535615582672e+52  -1.0515365502947852e+60  -7.1573776156713593e+43  -1.4167789079984219e+43  -6.6550952122648245e+54  2.0840537819509967e+40  -4.6322195402396894e+39  2.9653017806661037e+46  -3.2610940403495944e+31  -4.8554028863577993e+69  1.0712647570655410e+46  -7.0362863079460186e+61  4.1334328742183853e+50  6.4496219263417474e+52  -1.9728249354222286e+44  -4.3178778679700232e+36  -2.0561830017247840e+47  -1.5937545976554482e+40  1.2452276057123904e+55  -8.9219006139974853e+41  1.4318643814098160e+56  -2.6134451403241879e+59  7.7490182584256151e+39  -1.9475826103461221e+43  -9.2286375478200342e+50  -1.1676055931642506e+53  3.4840547571310952e+38  6.0996473975621772e+46  4.5411687948870556e+46  -9.5445899866326246e+62  1.8754053949094095e+53  1.5038215749427197e+49  8.0538173562116605e+43  3.6404702277468523e+42  -3.5590981919279295e+59  9.1064701839334749e+57  3.4229127612149933e+50  -3.5273195122535828e+63  -3.3127984243729485e+50  2.7021976155252842e+58  1.9238908064707949e+41  2.0223252771994387e+42  -2.7672900148897900e+50  -3.9407768019076205e+50  2.3516940464656629e+47  -5.5514062254793025e+66  -7.2922794636008523e+66  1.5235675989665774e+54  9.3604702750513549e+33  5.1906276504046282e+38  1.7376637732797587e+49  -5.5421017076931286e+42  4.9543985325915351e+35  -7.8898392742615901e+41  -3.1515403502569325e+48  2.3913265526141955e+49  -4.4541851279232940e+68  2.3945411889238039e+32  3.7381456283975350e+45  -2.2442751646654346e+69  -1.7598816169440315e+30  -1.6579358580673497e+38  1.1295049482848610e+55  -1.7276313046989733e+64  2.4788411408877071e+45  -7.8910222255653249e+60  1.4896450446730017e+58  -1.6021471017240600e+49  3.4559071855340405e+35  -1.5618369071656012e+48  1.3279351577460726e+42  1.9226309079693317e+43  -2.5649657028917740e+41  4.9085268328878781e+33  -4.9587692241666926e+67  -5.9745982563783181e+44  4.1021480364660985e+36  1.5381578053336643e+55  -1.8026753572182007e+65  -6.2119894217401827e+38  -1.3551812065569288e+46  1.4132329487867571e+50  -9.4406746456725057e+51  6.0091403891255944e+50  2.5022060534020635e+45  -1.2828312033239809e+59  -9.5770493923708447e+41  -9.3192503553537403e+60  3.3328896992685037e+52  -4.5546316794907156e+52  1.1691185087195187e+49  -6.6212073735519422e+50  -6.3543576338630750e+64  -5.5864606293860216e+47  -5.7948332293699986e+44  2.1033583263712058e+41  -2.4644729096205583e+48  1.4765120401819962e+37  2.9219556164551269e+52  -3.5232654235513578e+56  2.3948109534767498e+45  -1.3880895544050554e+32  5.0232313371311136e+49  7.5026797420254531e+47  -3.4916978985599791e+39  2.2281874386601799e+55  -4.0328372593686143e+38  1.5312085297269143e+46  -6.1939209406822427e+51  7.2895382366455530e+68  -1.2833528969723514e+43  -3.9325539808756222e+53  -2.5836908792927871e+54  -2.5506578355294007e+44  -7.2789759229014022e+30  4.1344119609528812e+60  4.7523508918087250e+59  5.5333252366767067e+61  1.5257016514798339e+43  -3.9876146526929614e+38  -1.6674841963412378e+46  -9.0161341550984796e+38  -3.1673131797776050e+40  1.6258511293919698e+42  1.3495297669827183e+43  -7.5774712501847111e+55  -6.4892878084077635e+54  1.9530176471338030e+55  8.1136750706892554e+53  1.2535266386464832e+53  -5.5266442226190840e+71  2.1046355057782481e+38  -4.0268420994954096e+69  1.6643538556008567e+47  -2.5084189771657942e+31  -7.8070660038599488e+42  3.8879989913551065e+28  5.6859677681571588e+44  3.7847270247030448e+44  2.9469933048647427e+29  5.3080939252553805e+66  1.0001335235992716e+35  7.3336929552637814e+68  -5.7894731937321855e+37  3.9164580817986706e+37  1.8634322263705232e+39  -7.0544225764902139e+44  -2.8520783342465409e+45  3.8439453564869267e+40  5.2276504495704368e+53  -8.2706023010624243e+67  -1.0584709138431364e+47  -3.6530937182156786e+37  -1.7946945034862143e+63  -6.1387020221715627e+60  -2.7913415446296371e+53  -7.6024465038522425e+69  -3.1246989242036830e+56  4.4232287981626989e+46  -3.5602071915456834e+45  -1.5098547817713176e+38  -1.7971103568755678e+35  4.4312037933657342e+49  3.6945340122115684e+45  -2.9313870444105452e+51  1.1732674037456647e+54  -4.7406742735884236e+55  -3.2053195751663156e+59  -1.1221126870924869e+59  1.0620890799111584e+69  5.3287861763910557e+29  8.8862497990691245e+34  -1.1431211739748715e+64  -1.5671319268571640e+47  -1.3615476390700363e+38  -3.8906841008030797e+49  7.0256710504478553e+46  3.8612419951109821e+60  7.0129994648659334e+49  -5.9242599621437228e+53  2.6752692607975182e+43  -1.7475043638891175e+58  -5.1203137708279063e+51  4.1658180163522391e+28  5.0515063752348964e+43  3.8188156929049373e+67  -8.7742532697180319e+36  2.1329551093485465e+50  2.8096342351397902e+59  2.4502152368829876e+45  9.0865772555032335e+38  -1.1156562211937844e+39  1.8470598099879887e+46  -2.0542682621563208e+45  -2.4783284017497266e+49  -7.6711942194034815e+31  4.0473854058167788e+32  -4.6215047549648664e+30  -1.0981155450453455e+43  2.2258833884744363e+44  4.2133723826366499e+33  2.5927340871223814e+53  2.3278476333066483e+41  -2.1010259432801902e+42  4.9193663009787416e+48  5.9980205496601940e+50  -1.1532298241710875e+50  3.1053558656646044e+41  -1.1150457305011040e+58  2.3501800801185002e+70  3.1848381342228199e+59  -3.0197543462784136e+61  1.7333631265289670e+47  -1.4607735070857637e+53  2.4058982980820464e+53  -2.7471590955848429e+41  -6.1358538888254174e+41  -3.0712706417283031e+57  -2.6519012299977947e+56  1.0835696666479733e+41  7.2917617638245113e+40  9.9243853569946653e+50  -1.4741937843664448e+66  -5.6597250451259897e+51  1.7407241201541804e+48  1.0608286228433641e+41  -1.0052931603787132e+50  -7.4861318578352362e+36  9.9948974862427815e+46  -4.2524007367925499e+45  1.8140113186894212e+44  8.8985017211701938e+39  2.5833758650206666e+39  -1.4391120411969672e+46  6.8973942045853017e+56  -1.1224266823844006e+56  3.6876741679260202e+39  1.1535668303978233e+44  2.0942416144214701e+40  2.2641039987092339e+36  5.5719769621117647e+47  -6.5511269156751120e+43  3.8710516889170474e+55  4.7910669784949327e+58  -1.8289611490620722e+59  4.9363512578185320e+42  2.1539051256541927e+42  3.2810590810033449e+35  -1.0625182000324898e+61  -6.8152300675316559e+61  -1.1340744863663452e+62  6.7536618749312732e+44  -2.4025474884507831e+60  4.1480228236505540e+54  -2.2497356071473803e+43  -6.9416753508258822e+51  -3.2605987298323353e+52  -2.0628512892095370e+53  3.6371754190719578e+46  1.1361307598852075e+46  1.4881694057780323e+50  -1.0958814078990116e+50  -3.3508649382470618e+69  -1.0514220581717640e+35  -4.4024599784342129e+53  1.6736965672049114e+46  -1.1382030324896222e+66  1.1415115530634743e+66  -1.2466154545577864e+52  -3.5838521862161639e+51  1.8836705322060940e+49  -5.5260641970503109e+43  2.4137017033638400e+42  2.6419952494893462e+42  9.4684784806208717e+58  -1.6523004786464778e+58  9.2210575888499898e+50  4.8493645803520701e+47  3.9858268236565334e+44  -4.8842138476316093e+47  -1.0169923154039674e+50  1.5697704347272729e+60  -1.2371728469405928e+48  -4.6648378305502233e+40  2.3674039576526440e+48  1.1199163367182400e+66  7.7181718967685966e+41  4.5489685803040882e+27  -1.9631135810499078e+35  -2.1800213662112281e+45  -3.1657857021788095e+49  -3.5241145166468233e+41  7.9272666517804495e+51  -9.5837122070247336e+59  3.8690624397686289e+51  -3.2610203482577323e+42  3.8048790768940099e+41  4.7834361125327644e+39  -5.7904830714513899e+49  -6.1353160572155126e+65  -3.3949315563248881e+66  -4.1144073794190672e+67  -6.4197991365187482e+65  8.4861638691978732e+56  1.6629400274068677e+41  -9.3248636492535494e+43  -6.0922553258684319e+51  -4.1382179598235918e+51  -2.8768862691797465e+52  -3.9261674856167278e+57  -4.9144434892532301e+60  -7.5535606318130975e+42  -5.4184073742005847e+43  -3.6120478375892761e+35  5.5284427746114965e+40  -1.3019294084377354e+51  -3.8214419007504031e+34  -2.4164956611507385e+45  -1.9267665375643331e+49  -4.3396314621760519e+55  -5.2336105304949955e+31  -1.4490605251921971e+43  -1.5622698565717449e+63  -4.7092937719375060e+62  -5.0169538969566002e+68  -3.7384144834715512e+47  4.0279054906222139e+37  -2.6378609121896978e+47  -5.2209173213734554e+43  -8.6719784178747634e+42  -1.1892259842798343e+42  3.1824713033011827e+41  -1.9648861145484147e+57  5.1843800525992646e+30  1.2430441430257799e+67  -8.7299713777881296e+39  -1.0454632661700793e+51  -1.1689625485273098e+39  1.0426185648707968e+47  -1.5476726524077686e+62  -3.2666678726086708e+52  4.2893655079595879e+41  5.3344668387790969e+56  -4.0681277198707449e+35  -1.5608239471780494e+53  -9.7006899591091989e+69  -1.0819635440360393e+41  -1.2558811861195691e+50  4.7595255358148931e+39  -1.2228315623521861e+49  -3.1755054407689212e+42  -3.5088671130629711e+42  8.4416902292508763e+35  2.5628974125741412e+27  5.7439702897628115e+66  -6.3157039702475151e+45  -2.0383501621621536e+54  -9.2176513549415057e+66  2.0799986947770214e+50  5.3283215641860857e+41  1.8925562598453832e+49  -1.6265267463577847e+50  -4.1354001457235520e+57  -3.8049229561551816e+32  -7.7003471876906464e+42  4.7144505200643895e+40  -8.1776727663485204e+46  -6.1153224972290900e+50  3.6687330939344817e+49  -8.5974413701010521e+49  -3.5541697978380455e+39  -2.1356348576704948e+49  -2.8348063181613832e+39  5.8349926151862973e+55  -3.3892700146564167e+46  8.7336180965090926e+38  7.4007447133700482e+44  -1.0477309336013815e+64  5.7809758456595222e+37  -5.3126882751546966e+51  -3.5610455318619970e+64  -7.6607808335742803e+62  -6.7867089217217413e+62  8.0562768144836515e+51  1.9475879281144803e+52  -1.4571926598276251e+69  1.8102602111583959e+44  1.6663864926317601e+37  -6.7414082791702597e+47  8.1178097287042617e+53  5.1892896026835241e+59  -9.1931816679907776e+45  -2.3262957864361821e+41  -2.7805870557097393e+70  8.6050370388196253e+39  3.5899684606747353e+46  2.5338261864722822e+41  1.1377037409693951e+51  -1.5434093534047001e+40  4.7380330267250937e+43  -1.2712875199222155e+36  -1.4689288846697253e+47  -3.3376180715474671e+40  2.7019664357708996e+40  1.0894082729780313e+49  3.6435164220261871e+47  -2.4007227594064461e+48  4.5881584170652527e+68  -3.8742743762539841e+31  -4.2342498080298203e+47  -2.9280613316878477e+38  2.5251293406209438e+54  1.1313363752899143e+47  1.4720765147285089e+48  -3.8371222895566406e+49  8.5675909033922454e+45  5.2665471936179458e+38  3.3920353973955479e+39  -7.0730880091728700e+51  -2.0778413373853140e+38  6.0225880872753225e+43  2.1853188539026503e+65  -4.4792469128773149e+44  -1.7608621089884623e+52  -2.4313600426924656e+34  -9.4626942986107702e+50  -4.0753547375637573e+36  -3.0391072749246220e+35  1.1079518576979981e+68  2.4592652666411781e+68  5.1481638358762408e+31  -9.2841719613346790e+32  -1.2038259131647352e+43  4.8887275237952410e+51  -1.7278055774935245e+56  -7.5648127437228351e+54  2.1509390876894220e+53  -2.3502022204510557e+54  -8.2160551370666559e+50  1.6770126306280361e+71  -3.8037709250652141e+55  8.6898348477174883e+50  -9.8786061273869925e+39  3.3602927657973161e+41  1.5421275389914820e+54  3.1210907990190558e+57  2.4815266634846682e+54  9.8877606247426209e+51  2.6615701640154740e+61  4.2644634259974921e+39  -5.1527125680045175e+42  -3.9404803954013695e+39  -6.9821705091305029e+43  -2.7832825454434175e+45  1.2278609651524779e+38  -4.4773530809044428e+69  8.5195414092269594e+29  3.7617870309750928e+30  2.2031639632080253e+31  -5.6542172736241143e+68  1.9901063489286482e+68  -5.4764690243955865e+64  -5.8910208264402022e+45  -5.0184720942826608e+63  5.2251082987963526e+43  8.9671746400583097e+61  1.2489966445434565e+46  -1.5056519599535141e+45  -8.6838910774194112e+38  2.5911578251030295e+37  -1.1097538629410452e+38  -8.1162079773031317e+53  -5.6754816819671275e+30  1.0941991373822905e+38  2.1885797857022263e+44  -1.8729043457043431e+68  5.2834976338399533e+45  -3.1434292544690531e+51  5.9465115972598768e+48  -6.0920236049910029e+37  -1.0504016454602151e+46  1.2955955263171714e+48  -2.2536434670629983e+38  3.7210455477722622e+58  -3.3486621042821909e+63  -1.1054039237719066e+63  -8.1070234067665915e+64  1.9339571617092821e+38  1.3479709995113759e+54  5.7427136258435164e+33  -3.2481567337336035e+64  3.0588205901775333e+41  4.9043148515760903e+47  -3.4885688504570866e+44  -1.2553083945659376e+46  -2.6058105044953928e+70  -1.9199511877951299e+53  3.3934490107224056e+32  -6.7936107777743606e+62  -7.8671894981444378e+41  1.2469742155365796e+59  1.1660554098344262e+42  -3.6403257339775162e+47  -6.3924204628025524e+58  1.7176004025709203e+54  -4.1568644464749799e+56  -1.2684812171375613e+55  2.7840723706681400e+36  5.4472911415157066e+41  -5.8961140458693020e+48  -2.3436420611859108e+54  -7.4235247795189218e+52  -8.6283117323731072e+52  9.1398794275148537e+52  -3.8020187230862729e+54  3.8740594381701704e+43  2.2220814750085479e+42  2.0066469606856088e+49  7.2652467313312843e+48  4.4532876897734834e+38  -7.8568636954095142e+49  6.3460406482702045e+38  8.0127588885203922e+45  2.8930616691141415e+43  1.0167888249892659e+44  8.2471830272167536e+43  2.0458772589968895e+47  -2.7415906622409143e+51  -1.4347939610568173e+60  3.8926663024640779e+59  -2.2024560628884713e+61  -5.8829128672951761e+52  -2.0908741623521229e+68  1.4837407724078237e+47  2.4989859783002245e+51  1.1354076054926609e+34  4.0055856866019953e+32  -3.7043327475159543e+35  -2.9734448397067222e+49  4.1758906564568486e+48  -4.6356733473153956e+48  1.1251357184003990e+55  -4.6588715898709559e+57  2.7693561170315047e+36  -1.5262739674698689e+42  5.9572825318681061e+67  1.1470804541466193e+46  -7.1979261388067071e+44  3.0586825397070707e+50  5.1644414707037808e+37  -1.3367271006308938e+58  -1.9184880520225103e+43  2.4062520145694013e+59  1.711619538347