<?xml version="1.0"?>
<VTKFile type="UnstructuredGrid"  version="0.1"  >
<UnstructuredGrid>
<Piece  NumberOfPoints="2331" NumberOfCells="4248">
<Points>
<DataArray  type="Float64"  NumberOfComponents="3"  format="ascii">0 0.3 0  0 0 0  0.04999999999999999 0 0  0.0514582251803892 0.02410733605106462 0  0.0558116365147896 0.04786313285751154 0  0.06299675146291706 0.07092097740850717 0  0.07290879486935808 0.09294463440875382 0  0.08540322682126872 0.1136129493462312 0  0.1002978503657798 0.132624531648159 0  0.117375468351841 0.1497021496342203 0  0.1363870506537689 0.1645967731787313 0  0.1570553655912463 0.177091205130642 0  0.1790790225914929 0.187003248537083 0  0.2021368671424885 0.1941883634852104 0  0.2258926639489354 0.1985417748196108 0  0.25 0.2 0  0.2741073360510646 0.1985417748196108 0  0.2978631328575116 0.1941883634852104 0  0.3209209774085071 0.187003248537083 0  0.3429446344087537 0.177091205130642 0  0.3636129493462312 0.1645967731787313 0  0.3826245316481591 0.1497021496342202 0  0.3997021496342202 0.132624531648159 0  0.4145967731787313 0.1136129493462312 0  0.427091205130642 0.09294463440875371 0  0.4370032485370829 0.07092097740850713 0  0.4441883634852104 0.04786313285751155 0  0.4485417748196108 0.02410733605106461 0  0.45 0 0  0.55 0 0  0.5514582251803892 0.02410733605106462 0  0.5558116365147896 0.04786313285751154 0  0.5629967514629171 0.07092097740850717 0  0.5729087948693581 0.09294463440875382 0  0.5854032268212688 0.1136129493462312 0  0.6002978503657798 0.132624531648159 0  0.617375468351841 0.1497021496342203 0  0.6363870506537689 0.1645967731787313 0  0.6570553655912463 0.177091205130642 0  0.6790790225914929 0.187003248537083 0  0.7021368671424885 0.1941883634852104 0  0.7258926639489354 0.1985417748196108 0  0.75 0.2 0  0.7741073360510646 0.1985417748196108 0  0.7978631328575116 0.1941883634852104 0  0.8209209774085071 0.187003248537083 0  0.8429446344087537 0.177091205130642 0  0.8636129493462312 0.1645967731787313 0  0.8826245316481591 0.1497021496342202 0  0.8997021496342202 0.132624531648159 0  0.9145967731787312 0.1136129493462312 0  0.927091205130642 0.09294463440875371 0  0.9370032485370829 0.07092097740850713 0  0.9441883634852104 0.04786313285751155 0  0.9485417748196108 0.02410733605106461 0  0.95 0 0  1 0 0  1 0.3 0  0.9758926639489353 0.3014582251803892 0  0.9521368671424885 0.3058116365147896 0  0.9290790225914928 0.3129967514629171 0  0.9070553655912461 0.3229087948693581 0  0.8863870506537688 0.3354032268212687 0  0.867375468351841 0.3502978503657798 0  0.8502978503657798 0.367375468351841 0  0.8354032268212687 0.3863870506537689 0  0.822908794869358 0.4070553655912464 0  0.8129967514629171 0.4290790225914929 0  0.8058116365147896 0.4521368671424885 0  0.8014582251803892 0.4758926639489354 0  0.8 0.4999999999999999 0  0.8014582251803892 0.5241073360510646 0  0.8058116365147896 0.5478631328575115 0  0.8129967514629171 0.5709209774085071 0  0.8229087948693581 0.5929446344087538 0  0.8354032268212688 0.6136129493462312 0  0.8502978503657798 0.632624531648159 0  0.867375468351841 0.6497021496342202 0  0.8863870506537689 0.6645967731787313 0  0.9070553655912463 0.677091205130642 0  0.9290790225914929 0.6870032485370829 0  0.9521368671424885 0.6941883634852104 0  0.9758926639489354 0.6985417748196108 0  1 0.7 0  1 1 0  0.95 1 0  0.9485417748196108 0.9758926639489353 0  0.9441883634852104 0.9521368671424885 0  0.9370032485370829 0.9290790225914928 0  0.927091205130642 0.9070553655912463 0  0.9145967731787312 0.8863870506537688 0  0.8997021496342201 0.8673754683518409 0  0.882624531648159 0.8502978503657798 0  0.863612949346231 0.8354032268212686 0  0.8429446344087537 0.822908794869358 0  0.8209209774085071 0.8129967514629171 0  0.7978631328575114 0.8058116365147896 0  0.7741073360510646 0.8014582251803892 0  0.75 0.8 0  0.7258926639489353 0.8014582251803892 0  0.7021368671424885 0.8058116365147896 0  0.6790790225914928 0.8129967514629171 0  0.6570553655912461 0.8229087948693581 0  0.6363870506537688 0.8354032268212688 0  0.617375468351841 0.8502978503657798 0  0.6002978503657798 0.867375468351841 0  0.5854032268212687 0.8863870506537689 0  0.572908794869358 0.9070553655912463 0  0.5629967514629171 0.9290790225914929 0  0.5558116365147896 0.9521368671424885 0  0.5514582251803892 0.9758926639489355 0  0.55 0.9999999999999999 0  0.45 0.9999999999999999 0  0.4485417748196108 0.9758926639489353 0  0.4441883634852104 0.9521368671424885 0  0.4370032485370829 0.9290790225914928 0  0.427091205130642 0.9070553655912463 0  0.4145967731787313 0.8863870506537688 0  0.3997021496342201 0.8673754683518409 0  0.382624531648159 0.8502978503657798 0  0.363612949346231 0.8354032268212686 0  0.3429446344087536 0.822908794869358 0  0.3209209774085071 0.8129967514629171 0  0.2978631328575115 0.8058116365147896 0  0.2741073360510646 0.8014582251803892 0  0.25 0.8 0  0.2258926639489353 0.8014582251803892 0  0.2021368671424885 0.8058116365147896 0  0.1790790225914928 0.8129967514629171 0  0.1570553655912462 0.8229087948693581 0  0.1363870506537688 0.8354032268212688 0  0.117375468351841 0.8502978503657798 0  0.1002978503657797 0.867375468351841 0  0.08540322682126869 0.8863870506537689 0  0.07290879486935797 0.9070553655912463 0  0.06299675146291703 0.9290790225914929 0  0.05581163651478957 0.9521368671424885 0  0.0514582251803892 0.9758926639489355 0  0.04999999999999999 0.9999999999999999 0  0 1 0  -0 0.7000000000000001 0  0.0241073360510646 0.6985417748196108 0  0.04786313285751161 0.6941883634852104 0  0.07092097740850711 0.6870032485370829 0  0.09294463440875372 0.677091205130642 0  0.1136129493462312 0.6645967731787312 0  0.1326245316481591 0.6497021496342202 0  0.1497021496342202 0.632624531648159 0  0.1645967731787313 0.6136129493462312 0  0.177091205130642 0.5929446344087537 0  0.187003248537083 0.5709209774085071 0  0.1941883634852104 0.5478631328575115 0  0.1985417748196108 0.5241073360510646 0  0.2 0.5 0  0.1985417748196108 0.4758926639489353 0  0.1941883634852104 0.4521368671424885 0  0.1870032485370829 0.4290790225914928 0  0.177091205130642 0.4070553655912463 0  0.1645967731787313 0.3863870506537688 0  0.1497021496342202 0.3673754683518409 0  0.132624531648159 0.3502978503657798 0  0.113612949346231 0.3354032268212686 0  0.09294463440875361 0.322908794869358 0  0.07092097740850711 0.3129967514629171 0  0.04786313285751148 0.3058116365147896 0  0.02410733605106464 0.3014582251803892 0  0.6985417748196108 0.5241073360510646 0  0.7 0.5 0  0.6985417748196108 0.4758926639489353 0  0.6941883634852104 0.4521368671424885 0  0.6870032485370829 0.4290790225914928 0  0.677091205130642 0.4070553655912463 0  0.6645967731787312 0.3863870506537688 0  0.6497021496342201 0.3673754683518409 0  0.632624531648159 0.3502978503657798 0  0.613612949346231 0.3354032268212686 0  0.5929446344087537 0.322908794869358 0  0.5709209774085071 0.3129967514629171 0  0.5478631328575114 0.3058116365147896 0  0.5241073360510646 0.3014582251803892 0  0.4999999999999999 0.3 0  0.4758926639489353 0.3014582251803892 0  0.4521368671424885 0.3058116365147896 0  0.4290790225914928 0.3129967514629171 0  0.4070553655912462 0.3229087948693581 0  0.3863870506537688 0.3354032268212687 0  0.367375468351841 0.3502978503657798 0  0.3502978503657798 0.367375468351841 0  0.3354032268212687 0.3863870506537689 0  0.322908794869358 0.4070553655912464 0  0.3129967514629171 0.4290790225914929 0  0.3058116365147896 0.4521368671424885 0  0.3014582251803892 0.4758926639489354 0  0.3 0.4999999999999999 0  0.3014582251803892 0.5241073360510646 0  0.3058116365147896 0.5478631328575115 0  0.3129967514629171 0.5709209774085071 0  0.3229087948693581 0.5929446344087538 0  0.3354032268212687 0.6136129493462312 0  0.3502978503657798 0.632624531648159 0  0.367375468351841 0.6497021496342202 0  0.3863870506537689 0.6645967731787313 0  0.4070553655912463 0.677091205130642 0  0.4290790225914929 0.6870032485370829 0  0.4521368671424885 0.6941883634852104 0  0.4758926639489354 0.6985417748196108 0  0.4999999999999999 0.7 0  0.5241073360510646 0.6985417748196108 0  0.5478631328575116 0.6941883634852104 0  0.5709209774085071 0.6870032485370829 0  0.5929446344087537 0.677091205130642 0  0.6136129493462312 0.6645967731787312 0  0.6326245316481591 0.6497021496342202 0  0.6497021496342202 0.632624531648159 0  0.6645967731787312 0.6136129493462312 0  0.677091205130642 0.5929446344087537 0  0.6870032485370829 0.5709209774085071 0  0.6941883634852104 0.5478631328575115 0  0 0.15 0  1 0.15 0  1 0.85 0  0 0.8500000000000001 0  0 0.075 0  1 0.075 0  1 0.925 0  0 0.925 0  0.5 0.8127595604293815 0  0.5069440078039168 0.190422209288238 0  0.25 0.3127595604293815 0  0.756944007803917 0.3095777907117619 0  0.756944007803917 0.6904222092882382 0  0.25 0.6872404395706185 0  0 0.225 0  0.4255768646051012 0.2241073097134061 0  1 0.7749999999999999 0  0.6773391559270888 0.2766774022734219 0  1 0.225 0  0.6755768646051011 0.7241073097134062 0  0 0.7750000000000001 0  0.5818971135297744 0.2287925518358889 0  0.8318971135297746 0.728792551835889 0  0.1659156081861886 0.7301636995921477 0  0.08376842746533225 0.2299656297760495 0  0.4236002201977974 0.7746535834185855 0  0.0840843918138115 0.7698363004078523 0  0.3340843918138113 0.7301636995921477 0  0.3340843918138114 0.2698363004078523 0  0.9159156081861887 0.2301636995921477 0  0.5840843918138116 0.7698363004078522 0  0.1659156081861887 0.2698363004078523 0  0.9162315725346678 0.7700343702239506 0  0.8340843918138114 0.2698363004078523 0  0.75 0.6146645247768686 0  0.5 0.1125158665330878 0  0.75 0.3874841334669124 0  0.2504983345544904 0.6122915843562002 0  0.2504983345544902 0.3877084156437999 0  0.5 0.8879783056303169 0  0.7005361650220154 0.3333055947145943 0  0.70416808765371 0.6599554817221275 0  0.449930214263529 0.1678187287522426 0  0.2247310981387008 0.7415600637745463 0  0.5155081196221678 0.7563797802146907 0  0.2752689018612993 0.2584399362254537 0  0.05605196690611226 0.8246131191226815 0  0.9439480330938878 0.1
[...]
<PointData  Scalars="Temperature"> 
<DataArray  type="Float64"  Name="Temperature"  format="ascii">-1.5507582768726756e+05  3.9772272913770166e+01  5.6589431247467218e+01  -9.2127207358231917e+00  2.0700184821956140e+02  -1.3569330018540943e+03  4.0727965829707364e+03  -3.5136540542713483e+04  -4.7951673206050991e+05  3.9512107434742060e+05  5.8572244744765207e+07  7.1105825049246752e+08  5.5302872893347111e+09  3.6302435072394974e+10  -1.8514731425368597e+11  -7.7577958241184119e+11  7.2141548098981055e+11  -1.3375152805370139e+13  1.9339616903152555e+13  4.4766583501163266e+13  -9.6726354559545512e+14  -2.6453776057271900e+15  -1.5775996068534215e+15  -4.8679119775703920e+15  2.6525735654299100e+15  6.4513457654444725e+14  3.1688291908393712e+14  -8.1057183715692078e+13  6.5133020233566109e+13  1.5882798334413895e+15  -2.9091578962290760e+15  5.3077663940997970e+15  -1.0042359991706674e+17  5.9011970068212582e+17  6.5094140099908495e+18  -4.3849392479380035e+18  -1.7339958047998991e+20  -2.5560283902277773e+20  -1.0547606028301566e+21  2.6964539454286657e+21  -3.9634542330766952e+22  3.2462254267938940e+22  -8.2926171362122387e+20  -1.2504655600532828e+21  -8.4288490948726578e+21  2.6682627938827498e+20  2.7185739509982372e+21  -5.6369798928280945e+19  1.5576504611421884e+20  -7.0651094584896532e+18  1.0274939756841890e+19  -3.2627618405788867e+18  1.8313974556191427e+17  6.9332949073411896e+16  6.1925048450072550e+15  -1.6371154484711490e+15  6.2721572582309922e+13  -1.4922785180759888e+22  -4.3590321050053813e+22  -3.1225546302100597e+23  -2.0870282437039722e+24  -1.1306161524766989e+25  -9.9280847315131098e+25  -2.1942082355087669e+26  1.1004343038906240e+26  -2.0125460394086759e+28  1.0669298748047036e+29  -2.9607739585552777e+29  6.1177128275240956e+30  -2.4509648859344226e+31  -2.1256084729151933e+32  1.4484034268522666e+33  -4.6762099860631320e+33  3.1792345563461987e+34  -2.7119029933540434e+35  2.4387529390489026e+35  -8.2956855505711862e+36  -1.7855003569199076e+38  -3.2976313901882367e+38  -5.2655263854878313e+39  7.8255874945722855e+38  9.5154964365238231e+40  -1.8351284091429640e+41  -6.6350110790795379e+41  -4.5383305884008227e+38  2.4034856716937907e+39  -3.4827086551744684e+39  -3.3153062185946029e+39  -5.6655656474912251e+40  6.5901947334661910e+40  -3.1748907287111475e+41  1.9552161899645116e+41  -1.5291779492018265e+39  -2.4818850735100074e+40  -8.0991771813550314e+39  1.3330568743841128e+39  1.2561811919292142e+38  1.7665097270484854e+36  1.1261114201612148e+36  5.6053030786974281e+34  2.7288901909480459e+33  -2.0163736043965223e+33  7.6709807369906726e+31  3.4642623945905410e+31  -1.0543699944574647e+31  6.1982713650783641e+29  -2.8902515483742604e+29  2.3289048981735607e+28  -9.8740569537097155e+27  -2.9224009235494206e+26  9.1303613939076223e+25  5.4459504364363251e+25  1.2015178281798359e+24  -3.3587444804702355e+23  5.5147637152105060e+24  -7.0950599830823536e+24  -9.1092078501076248e+24  -3.6327606689100729e+24  4.5672263868408577e+24  3.2239697459000735e+24  -2.6841221376069421e+23  -8.6417006731667186e+22  1.5491264519345323e+22  -3.8957547952453478e+21  6.3574473121873501e+20  9.2093854765958349e+19  -2.0401395799216853e+19  3.2862880207383777e+18  4.1821051532126528e+16  -1.4409676737143954e+16  -1.4892500195091198e+15  2.4943743233567437e+12  -1.5661310565135170e+13  1.2141717987008311e+12  7.7353951802733444e+10  3.0709400124062775e+10  8.3965696246870680e+09  3.9069038064836121e+08  -6.0150288748257315e+08  -6.1901446733167863e+08  3.8559974555770239e+11  -5.5931979052272180e+11  -6.6198622472388115e+12  2.1608578683778664e+13  3.0443192175384800e+14  8.4401799548299112e+14  -7.0592005828777620e+15  -1.2581717449960580e+16  6.1232430158458110e+15  -2.9018048137072880e+16  -4.8707421317241360e+15  7.7096085612650700e+14  -5.7391087183323075e+14  2.0609985576515416e+14  8.3810271224669078e+13  -1.4242777890190318e+13  3.5193792831880581e+12  -1.0170494691909496e+12  3.1535360191716779e+11  3.6055787178927948e+10  -1.7708105857704647e+09  6.3583690990613055e+08  2.2803533161690983e+08  -3.6821011719614370e+06  5.1236387116766814e+06  6.8831387664014217e+05  6.0039556286667926e+29  -1.1089800921449289e+31  -2.7686510690360898e+29  -1.0139307922331758e+30  -1.8088119417564013e+28  8.7197560817866451e+27  -1.3746167999248965e+27  8.9874172105463029e+24  3.1977710384257296e+25  1.0081921415092973e+24  4.2694222838988530e+23  5.6453379142595767e+21  -1.2376279954326920e+22  -3.0231103029927960e+21  -5.8968617028467065e+19  -3.9247500901236425e+19  -3.0308928114273239e+18  2.3711988014099471e+18  1.7609574533043411e+17  -3.1345765494525880e+15  1.9283189049166242e+15  1.3087140152002323e+14  -8.8880458797079961e+12  3.1331332676627275e+12  4.8585633189828037e+12  7.5239602386501016e+13  -5.0593533199309812e+14  2.2787980805207560e+15  -1.7320844715004532e+16  2.2499441911121268e+16  1.1336843362991571e+17  1.2353235676883622e+19  -3.2781764497554376e+18  -1.4346768304400863e+21  6.2924467558839254e+21  2.2872889230355518e+22  -6.0977553652494604e+23  -2.4011672052019185e+24  -1.0798063530055053e+25  -1.2174812015847511e+25  -7.9642217944765965e+26  -1.2467842245687136e+27  -1.1820267548545940e+29  1.7366672628770336e+29  -5.5173900527311664e+30  5.3283034579122478e+30  1.9079666343087690e+31  3.0243160513966868e+31  1.5267637665588339e+30  1.0637053690318977e+32  -1.6954717558567558e+32  -1.3529249542190859e+31  2.2008140522211606e+03  1.5286378378105641e+19  5.0767416403903253e+43  -4.1066569533505318e+10  3.7568426301849414e+01  -4.5849701724078176e+16  9.8038182520293785e+40  8.3155386770013075e+09  3.6295212592763996e+27  -2.9650383030313492e+18  5.5413966801590775e+10  1.0225484130993748e+26  -1.8447492577002504e+35  -2.0078082896642601e+19  -1.4675282174682623e+04  1.5183488835635974e+17  4.8786781455118690e+43  -5.2404214351228303e+22  -1.1641811910041350e+21  -6.1761831004766613e+32  -1.0813913812844099e+12  1.2146484652759277e+21  -1.8134240022914428e+38  -7.4786085333707670e+15  -2.8363556198046212e+06  1.4495171334441726e+25  -5.6158032915515219e+13  -8.5522261658621067e+21  9.2203459537913550e+14  -2.9310236974395179e+22  -5.3994560620504320e+30  -4.4003608754634562e+09  -3.3477592082433190e+41  -1.6351479193343628e+23  1.0357032891315691e+34  5.9786570895920312e+16  3.2849888726318878e+27  -3.1262187632650778e+18  5.4677896506788300e+11  6.7144362384489254e+26  2.4656245568780497e+25  -1.1647567072543272e+33  -7.9280207443746464e+16  -1.5693251321841858e+16  -7.3716570134709659e+27  2.3084462638302840e+13  -5.1309759774228135e+12  3.2845792541360534e+19  -3.6091852650720015e+04  -5.3781897326553967e+42  1.1866090728729090e+19  -7.7938913954483133e+34  4.5784843740160290e+23  7.1440601811274868e+25  -2.1852412787053904e+17  -4.7827887460564756e+09  -2.2775746044489617e+20  -1.7653559990981602e+13  1.3793027027022014e+28  -9.8825319754188562e+14  1.5860348759708941e+29  -2.8948378022432704e+32  8.5833640196668936e+12  -2.1572810832838892e+16  -1.0222295629789713e+24  -1.2933230382571833e+26  3.8591869640313654e+11  6.7564034899264758e+19  5.0301216929986437e+19  -1.0572267033234669e+36  2.0773324635547105e+26  1.6657397837833290e+22  8.9209811889269008e+16  4.0324438690592030e+15  -3.9423104119991614e+32  1.0086974364490309e+31  3.7914617383998018e+23  -3.9071100851175085e+36  -3.6694912635117209e+23  2.9931463591326363e+31  2.1310383554749878e+14  2.2400713795518560e+15  -3.0652473324462462e+23  -4.3650847995035482e+23  2.6049036652725630e+20  -6.1491325565504956e+39  -8.0774476303472233e+39  1.6876118850592604e+27  1.0368352157662706e+07  5.7495085351249548e+11  1.9247600421621608e+22  -6.1388262105692680e+15  5.4878446450902116e+08  -8.7393473971763712e+14  -3.4908703459859429e+21  2.6488034492114677e+22  -4.9337723939759675e+41  2.6526622899883601e+05  4.1406360931047793e+18  -2.4859188681891934e+42  -1.9186144861873031e+03  -1.8364477298501938e+11  1.2511200528625798e+28  -1.9136473660821033e+37  2.7457408344555648e+18  -8.7406577182158681e+33  1.6500368500977407e+31  -1.7746521337922507e+22  3.8280089936825800e+08  -1.7300016939482625e+21  1.4709154725529955e+15  2.1296428022439916e+16  -2.8411385276933475e+14  5.4370635376248527e+06  -5.4926856436472397e+40  -6.6178901630340736e+17  4.5438310884939632e+09  1.7037730358262256e+28  -1.9967714985592965e+38  -6.8808415095607776e+11  -1.5010951349619708e+19  1.5653973754414269e+23  -1.0457163007287109e+25  6.6561514871782524e+23  2.7716214741326935e+18  -1.4209551231746260e+32  -1.0608221380742848e+15  -1.0322664823146271e+34  3.6917457892201455e+25  -5.0450341419636306e+25  1.2949988511806774e+22  -7.3341204319569706e+23  -7.0385386720603335e+37  -6.1879613086825133e+20  -6.4187696275862221e+17  2.3298293508804538e+14  -2.7298255591043634e+21  1.6354898026499233e+10  3.2365659582745606e+25  -3.9026194879942861e+29  2.6526630195462200e+18  -1.5372456237335151e+05  5.5640884668948432e+22  8.3105019501752012e+20  -3.8676530510413662e+12  2.4680989581120322e+28  -4.4670575126994690e+11  1.6960755236748454e+19  -6.8608275745053282e+24  8.0744112523141522e+41  -1.4215329881816926e+16  -4.3559766178175301e+26  -2.8618798655020286e+27  -2.8252901156986182e+17  -8.0323090707310266e+03  4.5795688801520061e+33  5.2640420106258284e+32  6.1291047667644725e+34  1.6899757134756290e+16  -4.4169657356087451e+11  -1.8470241489794900e+19  -9.9869117506568164e+11  -3.5083414543073238e+13  1.8009084015438785e+15  1.4948351983502988e+16  -8.3933463465490181e+28  -7.1879969346075115e+27  2.1633013167706398e+28  8.9872838527754526e+26  1.3884953021139939e+26  -6.1217044001935841e+44  2.3312440459072366e+11  -4.4604168472570179e+42  1.8435567608298852e+20  -2.7755130765706472e+04  -8.6476618329851680e+15  7.4286498620773642e+01  6.2981824962112512e+17  4.1922329622434746e+17  3.5733173834798890e+02  5.8796225394580452e+39  1.1078192778655337e+08  8.1233201605713816e+41  -6.4128324684611778e+10  4.3381476569026741e+10  2.0640701301326150e+12  -7.8139804170096640e+17  -3.1591649082451169e+18  4.2578274003265883e+13  5.7905176216759348e+26  -9.1611076196019927e+40  -1.1724377017487340e+20  -4.0464265425987823e+10  -1.9879313370724355e+36  -6.7996631711523364e+33  -3.0918885182199221e+26  -8.4210107146743752e+42  -3.4611388725349886e+29  4.8994829603747414e+19  -3.9435388188888248e+18  -1.6724225927038980e+11  -1.9906070181426591e+08  4.9083166325380343e+22  4.0923287637470290e+18  -3.2470128789897552e+24  1.2995944625344076e+27  -5.2511081574123228e+28  -3.5504400422619122e+32  -1.2429318583550462e+32  1.1764454399433883e+42  6.2123395813792581e+02  9.8430455481913850e+07  -1.2662023533261082e+37  -1.7358668345361623e+20  -1.5081470483553378e+11  -4.3095985593156563e+22  7.7821331808938705e+19  4.2769863880402560e+33  7.7680972310317671e+22  -6.5621318864196966e+26  2.9633185972962156e+16  -1.9356601805476321e+31  -5.6716238785485730e+24  7.7299253357159387e+01  5.5954079110644400e+16  4.2299919967900096e+40  -9.7189872486043663e+09  2.3626128537231073e+23  3.1121508038812747e+32  2.7140327462475361e+18  1.0064939541668379e+12  -1.2357802172802310e+12  2.0459348767099957e+19  -2.2754537026558518e+18  -2.7451728881013773e+22  -8.4941318082783648e+04  4.4834726116656378e+05  -5.0886020322225349e+03  -1.2163509162598734e+16  2.4655468281770960e+17  4.6670605652691135e+06  2.8718967659812988e+26  2.5784896812195381e+14  -2.3272458374032695e+15  5.4490401621318901e+21  6.6438343617323402e+23  -1.2773994135842888e+23  3.4397131245040669e+14  -1.2351039943712592e+31  2.6032266884172003e+43  3.5277533408757514e+32  -3.3448947904874675e+34  1.9199963398000404e+20  -1.6180566806551725e+26  2.6649441513728199e+26  -3.0429488937687581e+14  -6.7965083759934062e+14  -3.4019579050709196e+30  -2.9374345035843245e+29  1.2002388663066916e+14  8.0768741892395172e+13  1.0992955410532919e+24  -1.6329219347174348e+39  -6.2691141888294494e+24  1.9281499001252723e+21  1.1750492680050628e+14  -1.1135342380440818e+23  -8.2921723082137842e+09  1.1071059662316927e+20  -4.7102616439950141e+18  2.0093280161174160e+17  9.8566136967559180e+12  2.8615309333057988e+12  -1.5940628996726057e+19  7.6400446186256576e+29  -1.2432796618833201e+29  4.0847303121170146e+12  1.2777727056613645e+17  2.3197310320097016e+13  2.5078827235555949e+09  6.1719181681957916e+20  -7.2564943300999040e+16  4.2878523029278759e+28  5.3069267031586305e+31  -2.0258875120226989e+32  5.4678539089256170e+15  2.3858185825227955e+15  3.6343347962743270e+08  -1.1769207639246594e+34  -7.5490337738745497e+34  -1.2561815983960867e+35  7.4808364627447437e+17  -2.6612325561917937e+33  4.5946452401835972e+27  -2.4919672428306904e+16  -7.6890935671136488e+24  -3.6116711674667725e+25  -2.2849608741621717e+26  4.0287943045222818e+19  1.2584592732637569e+19  1.6484023274556907e+23  -1.2138762269821813e+23  -3.7116564429762242e+42  -1.1646295925565685e+08  -4.8764779377973130e+26  1.8539054130015384e+19  -1.2607546698570330e+39  1.2644194226689091e+39  -1.3808399828384867e+25  -3.9697296974918753e+24  2.0864875177465898e+22  -6.1210619226007464e+16  2.6735877583295740e+15  2.9264619346937005e+15  1.0487960513312400e+32  -1.8302055828335281e+31  1.0213899527867589e+24  5.3715012752559224e+20  4.4149854092153958e+17  -5.4101028034627882e+20  -1.1264930546264015e+23  1.7387894336013013e+33  -1.3703806787343915e+21  -5.1671063168099000e+13  2.6223050807728401e+21  1.2404990243949097e+39  8.5491963945362938e+14  3.6299989255960561e+01  -2.1744840716379485e+08  -2.4147467889161242e+18  -3.5066495114305878e+22  -3.9035600039254125e+14  8.7808046237350373e+24  -1.0615601588359361e+33  4.2856488690221614e+24  -3.6121381820358235e+15  4.2145548092092631e+14  5.2984742130556953e+12  -6.4139510831315503e+22  -6.7959126354320492e+38  -3.7604677648059494e+39  -4.5574103821798767e+40  -7.1110263370203718e+38  9.3998789511754198e+29  1.8419907041187759e+14  -1.0328882506894624e+17  -6.7482155053211363e+24  -4.5837846753245321e+24  -3.1866439422344528e+25  -4.3489024812252077e+30  -5.4435873055723820e+33  -8.3668612442335660e+15  -6.0018135650797936e+16  -4.0009609206500816e+08  6.1236966043624336e+13  -1.4421096541289039e+24  -4.2328980327394225e+07  -2.6766825447838781e+18  -2.1342237198622533e+22  -4.8068846025033207e+28  -5.7941180793080224e+04  -1.6050825484496328e+16  -1.7304812595178736e+36  -5.2163488808425537e+35  -5.5571351274739733e+41  -4.1409338961156702e+20  4.4615947377449623e+10  -2.9218824485136925e+20  -5.7830595297759904e+16  -9.6057003672889600e+15  -1.3172713218981598e+15  3.5251316705306931e+14  -2.1764476758031674e+30  5.7731241183901857e+03  1.3768841440619430e+40  -9.6699374962658633e+12  -1.1580295056013483e+24  -1.2948260985509424e+12  1.1548785120219591e+20  -1.7143123574931301e+35  -3.6183937818676234e+25  4.7512064548407550e+14  5.9088350550933427e+29  -4.5061474645386499e+08  -1.7288796673780161e+26  -1.0745174470349746e+43  -1.1984598106143839e+14  -1.3911033664376281e+23  5.2719891568791777e+12  -1.3544952514420106e+22  -3.5174157855200700e+15  -3.8866708947572680e+15  9.3506170034060216e+08  3.4069219561269449e+01  6.3624302164249916e+39  -6.9957231237624402e+18  -2.2578216824186888e+27  -1.0210126540813325e+40  2.3039545607260285e+23  5.9020281116754638e+14  2.0963299819612635e+22  -1.8016567629700440e+23  -4.5806634639202249e+30  -4.2143067853910697e+05  -8.5294524784091060e+15  5.2220608620087828e+13  -9.0581722543693644e+19  -6.7737663457100645e+23  4.0637498307482850e+22  -9.5231378293448428e+22  -3.9368513719920142e+12  -2.3655811336472468e+22  -3.1400331941816089e+12  6.4632530209363131e+28  -3.7541966383958393e+19  9.6739768617069678e+11  8.1975914590493146e+17  -1.1605413354085882e+37  6.4034202060566986e+10  -5.8847115683268088e+24  -3.9444674242769329e+37  -8.4856259691682792e+35  -7.5174417232973637e+35  8.9237054599165294e+24  2.1572869736225170e+25  -1.6140902794298415e+42  2.0051730224986320e+17  1.8458082570427959e+10  -7.4672635081511653e+20  8.9918636942026061e+26  5.7480264180226135e+32  -1.0183022174358071e+19  -2.5767707452006181e+14  -3.0799760810354598e+43  9.5315513325288301e+12  3.9765045182977040e+19  2.8066461835141472e+14  1.2602016190411597e+24  -1.7095900241515666e+13  5.2481825244434096e+16  -1.4081684894371622e+09  -1.6270901571790746e+20  -3.6969832708106484e+13  2.9928902879889762e+13  1.2067061221350774e+22  4.0358180506009036e+20  -2.6592113564601061e+21  5.0821707421620429e+41  -4.2883902792339388e+04  -4.6901563837324558e+20  -3.2433290826627637e+11  2.7970129382078315e+27  1.2531486717321619e+20  1.6305766962079793e+21  -4.2502696858832624e+22  9.4900733283496100e+18  5.8336024234170398e+11  3.7572597731211606e+12  -7.8346555784244845e+24  -2.3015649179429443e+11  6.6710471145463768e+16  2.4206146632362849e+38  -4.9615326103115546e+17  -1.9504561695162601e+25  -2.6931444754949104e+07  -1.0481553541733177e+24  -4.5141528684223671e+09  -3.3663311801387042e+08  1.2272463160760935e+41  2.7240572031803454e+41  5.7054535155332604e+04  -1.0283510487867548e+06  -1.3334432420177030e+16  5.4151024723610895e+24  -1.9138404030300705e+29  -8.3793248840509574e+27  2.3825331878187466e+26  -2.6032512126249795e+27  -9.1006872993497310e+23  1.8575785208099964e+44  -4.2133273413907342e+28  9.6254794195921119e+23  -1.0942247078282531e+13  3.7220993756267019e+14  1.7081701952998182e+27  3.4571422563372652e+30  2.7487155103775873e+27  1.0952387250985301e+25  2.9481445029142911e+34  4.7236231369284160e+12  -5.7075110917013950e+15  -4.3647564785427568e+12  -7.7339488859643040e+16  -3.0829617972673434e+18  1.3600661761265117e+11  -4.9594348672590832e+42  9.7447263809169613e+02  4.1975012290133600e+03  2.4434492826611287e+04  -6.2630133891976814e+41  2.2043834019980088e+41  -6.0661267803265012e+37  -6.5253138545185014e+18  -5.5588167908626216e+36  5.7877017545867632e+16  9.9326807082462730e+34  1.3834775583048573e+19  -1.6677672484659279e+18  -9.6188956764412659e+11  2.8701507882688225e+10  -1.2292423450812740e+11  -8.9900894803749381e+26  -6.2557011325554295e+03  1.2120128246777992e+11  2.4242267033354992e+17  -2.0745621234881132e+41  5.8523779368888996e+18  -3.4818859191303480e+24  6.5867793808331333e+21  -6.7479588321481888e+10  -1.1634996059031751e+19  1.4350937955923486e+21  -2.4962958663083380e+11  4.1216948270144148e+31  -3.7092164273297583e+36  -1.2244240431563115e+36  -8.9799159965025345e+37  2.1421885671065927e+11  1.4931085965818788e+27  6.3610680804415215e+06  -3.5978895272531673e+37  3.3881673420656556e+14  5.4323681057580745e+20  -3.8641870947322778e+17  -1.3904689017547225e+19  -2.8863811363417998e+43  -2.1266745534982896e+26  3.7591223716131132e+05  -7.5250867101763654e+35  -8.7142588934597612e+14  1.3812373720269323e+32  1.2916059448947572e+15  -4.0322838174785182e+20  -7.0806997698290314e+31  1.9025364251165325e+27  -4.6044388507669664e+29  -1.4050600573731068e+28  3.0838366918692341e+09  6.0338072810392650e+14  -6.5309554667762106e+21  -2.5959847134218873e+27  -8.2228242812762139e+25  -9.5573320392386154e+25  1.0123980819981372e+26  -4.2113864777974841e+27  4.2911839000228784e+16  2.4613355582896900e+15  2.2227049605597286e+22  8.0475042525182920e+21  4.9327783278582867e+11  -8.7028212995980087e+22  7.0293261872720239e+11  8.8755019085161482e+18  3.2045609661941344e+16  1.1262676541633186e+17  9.1351667654461056e+16  2.2661592304779769e+20  -3.0367809007644483e+24  -1.5892798868479050e+33  4.3117941869228330e+32  -2.4395970553407315e+34  -6.5163329020317314e+25  -2.3160010024774588e+41  1.6434968580067446e+20  2.7680546898191263e+24  1.2576612400667947e+07  4.4371733804089017e+05  -4.1031822532657832e+08  -3.2935990857648013e+22  4.6255136347902155e+21  -5.1348016599252515e+21  1.2462803829414185e+28  -5.1604976840962721e+30  3.0675359223810673e+09  -1.6906096513904438e+15  6.5987100344322117e+40  1.2705879337746909e+19  -7.9729351739091379e+17  3.3880144275410758e+23  5.7205028616996574e+10  -1.4806540541001559e+31  -2.1250538802042336e+16  2.6653359529236012e+32  1.895911594322