<?xml version="1.0"?>
<VTKFile type="UnstructuredGrid"  version="0.1"  >
<UnstructuredGrid>
<Piece  NumberOfPoints="2331" NumberOfCells="4248">
<Points>
<DataArray  type="Float64"  NumberOfComponents="3"  format="ascii">0 0.3 0  0 0 0  0.04999999999999999 0 0  0.0514582251803892 0.02410733605106462 0  0.0558116365147896 0.04786313285751154 0  0.06299675146291706 0.07092097740850717 0  0.07290879486935808 0.09294463440875382 0  0.08540322682126872 0.1136129493462312 0  0.1002978503657798 0.132624531648159 0  0.117375468351841 0.1497021496342203 0  0.1363870506537689 0.1645967731787313 0  0.1570553655912463 0.177091205130642 0  0.1790790225914929 0.187003248537083 0  0.2021368671424885 0.1941883634852104 0  0.2258926639489354 0.1985417748196108 0  0.25 0.2 0  0.2741073360510646 0.1985417748196108 0  0.2978631328575116 0.1941883634852104 0  0.3209209774085071 0.187003248537083 0  0.3429446344087537 0.177091205130642 0  0.3636129493462312 0.1645967731787313 0  0.3826245316481591 0.1497021496342202 0  0.3997021496342202 0.132624531648159 0  0.4145967731787313 0.1136129493462312 0  0.427091205130642 0.09294463440875371 0  0.4370032485370829 0.07092097740850713 0  0.4441883634852104 0.04786313285751155 0  0.4485417748196108 0.02410733605106461 0  0.45 0 0  0.55 0 0  0.5514582251803892 0.02410733605106462 0  0.5558116365147896 0.04786313285751154 0  0.5629967514629171 0.07092097740850717 0  0.5729087948693581 0.09294463440875382 0  0.5854032268212688 0.1136129493462312 0  0.6002978503657798 0.132624531648159 0  0.617375468351841 0.1497021496342203 0  0.6363870506537689 0.1645967731787313 0  0.6570553655912463 0.177091205130642 0  0.6790790225914929 0.187003248537083 0  0.7021368671424885 0.1941883634852104 0  0.7258926639489354 0.1985417748196108 0  0.75 0.2 0  0.7741073360510646 0.1985417748196108 0  0.7978631328575116 0.1941883634852104 0  0.8209209774085071 0.187003248537083 0  0.8429446344087537 0.177091205130642 0  0.8636129493462312 0.1645967731787313 0  0.8826245316481591 0.1497021496342202 0  0.8997021496342202 0.132624531648159 0  0.9145967731787312 0.1136129493462312 0  0.927091205130642 0.09294463440875371 0  0.9370032485370829 0.07092097740850713 0  0.9441883634852104 0.04786313285751155 0  0.9485417748196108 0.02410733605106461 0  0.95 0 0  1 0 0  1 0.3 0  0.9758926639489353 0.3014582251803892 0  0.9521368671424885 0.3058116365147896 0  0.9290790225914928 0.3129967514629171 0  0.9070553655912461 0.3229087948693581 0  0.8863870506537688 0.3354032268212687 0  0.867375468351841 0.3502978503657798 0  0.8502978503657798 0.367375468351841 0  0.8354032268212687 0.3863870506537689 0  0.822908794869358 0.4070553655912464 0  0.8129967514629171 0.4290790225914929 0  0.8058116365147896 0.4521368671424885 0  0.8014582251803892 0.4758926639489354 0  0.8 0.4999999999999999 0  0.8014582251803892 0.5241073360510646 0  0.8058116365147896 0.5478631328575115 0  0.8129967514629171 0.5709209774085071 0  0.8229087948693581 0.5929446344087538 0  0.8354032268212688 0.6136129493462312 0  0.8502978503657798 0.632624531648159 0  0.867375468351841 0.6497021496342202 0  0.8863870506537689 0.6645967731787313 0  0.9070553655912463 0.677091205130642 0  0.9290790225914929 0.6870032485370829 0  0.9521368671424885 0.6941883634852104 0  0.9758926639489354 0.6985417748196108 0  1 0.7 0  1 1 0  0.95 1 0  0.9485417748196108 0.9758926639489353 0  0.9441883634852104 0.9521368671424885 0  0.9370032485370829 0.9290790225914928 0  0.927091205130642 0.9070553655912463 0  0.9145967731787312 0.8863870506537688 0  0.8997021496342201 0.8673754683518409 0  0.882624531648159 0.8502978503657798 0  0.863612949346231 0.8354032268212686 0  0.8429446344087537 0.822908794869358 0  0.8209209774085071 0.8129967514629171 0  0.7978631328575114 0.8058116365147896 0  0.7741073360510646 0.8014582251803892 0  0.75 0.8 0  0.7258926639489353 0.8014582251803892 0  0.7021368671424885 0.8058116365147896 0  0.6790790225914928 0.8129967514629171 0  0.6570553655912461 0.8229087948693581 0  0.6363870506537688 0.8354032268212688 0  0.617375468351841 0.8502978503657798 0  0.6002978503657798 0.867375468351841 0  0.5854032268212687 0.8863870506537689 0  0.572908794869358 0.9070553655912463 0  0.5629967514629171 0.9290790225914929 0  0.5558116365147896 0.9521368671424885 0  0.5514582251803892 0.9758926639489355 0  0.55 0.9999999999999999 0  0.45 0.9999999999999999 0  0.4485417748196108 0.9758926639489353 0  0.4441883634852104 0.9521368671424885 0  0.4370032485370829 0.9290790225914928 0  0.427091205130642 0.9070553655912463 0  0.4145967731787313 0.8863870506537688 0  0.3997021496342201 0.8673754683518409 0  0.382624531648159 0.8502978503657798 0  0.363612949346231 0.8354032268212686 0  0.3429446344087536 0.822908794869358 0  0.3209209774085071 0.8129967514629171 0  0.2978631328575115 0.8058116365147896 0  0.2741073360510646 0.8014582251803892 0  0.25 0.8 0  0.2258926639489353 0.8014582251803892 0  0.2021368671424885 0.8058116365147896 0  0.1790790225914928 0.8129967514629171 0  0.1570553655912462 0.8229087948693581 0  0.1363870506537688 0.8354032268212688 0  0.117375468351841 0.8502978503657798 0  0.1002978503657797 0.867375468351841 0  0.08540322682126869 0.8863870506537689 0  0.07290879486935797 0.9070553655912463 0  0.06299675146291703 0.9290790225914929 0  0.05581163651478957 0.9521368671424885 0  0.0514582251803892 0.9758926639489355 0  0.04999999999999999 0.9999999999999999 0  0 1 0  -0 0.7000000000000001 0  0.0241073360510646 0.6985417748196108 0  0.04786313285751161 0.6941883634852104 0  0.07092097740850711 0.6870032485370829 0  0.09294463440875372 0.677091205130642 0  0.1136129493462312 0.6645967731787312 0  0.1326245316481591 0.6497021496342202 0  0.1497021496342202 0.632624531648159 0  0.1645967731787313 0.6136129493462312 0  0.177091205130642 0.5929446344087537 0  0.187003248537083 0.5709209774085071 0  0.1941883634852104 0.5478631328575115 0  0.1985417748196108 0.5241073360510646 0  0.2 0.5 0  0.1985417748196108 0.4758926639489353 0  0.1941883634852104 0.4521368671424885 0  0.1870032485370829 0.4290790225914928 0  0.177091205130642 0.4070553655912463 0  0.1645967731787313 0.3863870506537688 0  0.1497021496342202 0.3673754683518409 0  0.132624531648159 0.3502978503657798 0  0.113612949346231 0.3354032268212686 0  0.09294463440875361 0.322908794869358 0  0.07092097740850711 0.3129967514629171 0  0.04786313285751148 0.3058116365147896 0  0.02410733605106464 0.3014582251803892 0  0.6985417748196108 0.5241073360510646 0  0.7 0.5 0  0.6985417748196108 0.4758926639489353 0  0.6941883634852104 0.4521368671424885 0  0.6870032485370829 0.4290790225914928 0  0.677091205130642 0.4070553655912463 0  0.6645967731787312 0.3863870506537688 0  0.6497021496342201 0.3673754683518409 0  0.632624531648159 0.3502978503657798 0  0.613612949346231 0.3354032268212686 0  0.5929446344087537 0.322908794869358 0  0.5709209774085071 0.3129967514629171 0  0.5478631328575114 0.3058116365147896 0  0.5241073360510646 0.3014582251803892 0  0.4999999999999999 0.3 0  0.4758926639489353 0.3014582251803892 0  0.4521368671424885 0.3058116365147896 0  0.4290790225914928 0.3129967514629171 0  0.4070553655912462 0.3229087948693581 0  0.3863870506537688 0.3354032268212687 0  0.367375468351841 0.3502978503657798 0  0.3502978503657798 0.367375468351841 0  0.3354032268212687 0.3863870506537689 0  0.322908794869358 0.4070553655912464 0  0.3129967514629171 0.4290790225914929 0  0.3058116365147896 0.4521368671424885 0  0.3014582251803892 0.4758926639489354 0  0.3 0.4999999999999999 0  0.3014582251803892 0.5241073360510646 0  0.3058116365147896 0.5478631328575115 0  0.3129967514629171 0.5709209774085071 0  0.3229087948693581 0.5929446344087538 0  0.3354032268212687 0.6136129493462312 0  0.3502978503657798 0.632624531648159 0  0.367375468351841 0.6497021496342202 0  0.3863870506537689 0.6645967731787313 0  0.4070553655912463 0.677091205130642 0  0.4290790225914929 0.6870032485370829 0  0.4521368671424885 0.6941883634852104 0  0.4758926639489354 0.6985417748196108 0  0.4999999999999999 0.7 0  0.5241073360510646 0.6985417748196108 0  0.5478631328575116 0.6941883634852104 0  0.5709209774085071 0.6870032485370829 0  0.5929446344087537 0.677091205130642 0  0.6136129493462312 0.6645967731787312 0  0.6326245316481591 0.6497021496342202 0  0.6497021496342202 0.632624531648159 0  0.6645967731787312 0.6136129493462312 0  0.677091205130642 0.5929446344087537 0  0.6870032485370829 0.5709209774085071 0  0.6941883634852104 0.5478631328575115 0  0 0.15 0  1 0.15 0  1 0.85 0  0 0.8500000000000001 0  0 0.075 0  1 0.075 0  1 0.925 0  0 0.925 0  0.5 0.8127595604293815 0  0.5069440078039168 0.190422209288238 0  0.25 0.3127595604293815 0  0.756944007803917 0.3095777907117619 0  0.756944007803917 0.6904222092882382 0  0.25 0.6872404395706185 0  0 0.225 0  0.4255768646051012 0.2241073097134061 0  1 0.7749999999999999 0  0.6773391559270888 0.2766774022734219 0  1 0.225 0  0.6755768646051011 0.7241073097134062 0  0 0.7750000000000001 0  0.5818971135297744 0.2287925518358889 0  0.8318971135297746 0.728792551835889 0  0.1659156081861886 0.7301636995921477 0  0.08376842746533225 0.2299656297760495 0  0.4236002201977974 0.7746535834185855 0  0.0840843918138115 0.7698363004078523 0  0.3340843918138113 0.7301636995921477 0  0.3340843918138114 0.2698363004078523 0  0.9159156081861887 0.2301636995921477 0  0.5840843918138116 0.7698363004078522 0  0.1659156081861887 0.2698363004078523 0  0.9162315725346678 0.7700343702239506 0  0.8340843918138114 0.2698363004078523 0  0.75 0.6146645247768686 0  0.5 0.1125158665330878 0  0.75 0.3874841334669124 0  0.2504983345544904 0.6122915843562002 0  0.2504983345544902 0.3877084156437999 0  0.5 0.8879783056303169 0  0.7005361650220154 0.3333055947145943 0  0.70416808765371 0.6599554817221275 0  0.449930214263529 0.1678187287522426 0  0.2247310981387008 0.7415600637745463 0  0.5155081196221678 0.7563797802146907 0  0.2752689018612993 0.2584399362254537 0  0.05605196690611226 0.8246131191226815 0  0.9439480330938878 0.1
[...]
<PointData  Scalars="Temperature"> 
<DataArray  type="Float64"  Name="Temperature"  format="ascii">2.3783596673133296e+01  2.4384614984110630e+01  2.4378629814104929e+01  2.4369572281147306e+01  2.4343243482083796e+01  2.4299894917464151e+01  2.4238530043005571e+01  2.4157161012599889e+01  2.4057061691633891e+01  2.3937790033614053e+01  2.3797789413884175e+01  2.3639250053210990e+01  2.3466178420175126e+01  2.3281374037303703e+01  2.3087034303273882e+01  2.2889344057050728e+01  2.2691842478393603e+01  2.2497386434746044e+01  2.2314191335073637e+01  2.2141056718973207e+01  2.1984673554755197e+01  2.1846394783661257e+01  2.1722605049702899e+01  2.1620069282243211e+01  2.1535718480507207e+01  2.1474149263214915e+01  2.1427999008371131e+01  2.1402317842076638e+01  2.1393237338761871e+01  2.1151266926879622e+01  2.1141127409332938e+01  2.1110292110200067e+01  2.1058268794032866e+01  2.0990621032207287e+01  2.0907403653846863e+01  2.0815043407046780e+01  2.0721211272770486e+01  2.0626247692802998e+01  2.0535048556276028e+01  2.0450588407179080e+01  2.0374519398016457e+01  2.0308033169117742e+01  2.0251477336992359e+01  2.0204164001593313e+01  2.0165120871080710e+01  2.0133901385208031e+01  2.0108867493650433e+01  2.0089377523937269e+01  2.0074276236323179e+01  2.0062884520247714e+01  2.0054519613616762e+01  2.0048597273291925e+01  2.0044676323616237e+01  2.0042146838319319e+01  2.0040744080973557e+01  2.0040295154921665e+01  2.0038398764020926e+01  2.0039097912439324e+01  2.0042017310966891e+01  2.0049739271741828e+01  2.0060951002326334e+01  2.0074440152503115e+01  2.0089368556548454e+01  2.0104331091595682e+01  2.0119013146685958e+01  2.0131914587256496e+01  2.0141250023767267e+01  2.0150822495986841e+01  2.0096206264114738e+01  2.0365409538241106e+01  2.2026464308550512e+01  7.2904599881970391e+00  6.1584421002532473e+01  -2.6178762225158687e+02  2.4246782068569905e+03  -2.1423083955378888e+03  7.3576068733189546e+04  1.5831835972101218e+06  2.9239566169516272e+06  4.6688273994617775e+07  -6.9387547439010190e+06  -8.4371793269735777e+08  1.6271676561616952e+09  5.8831171030227566e+09  4.0240570265042433e+06  -2.1311154075127389e+07  3.0880424787010204e+07  2.9396104531748582e+07  5.0235315323482293e+08  -5.8433792237889636e+08  2.8151051735906920e+09  -1.7336467864556708e+09  1.3558901548987536e+07  2.2006326182095465e+08  7.1813626772978827e+07  -1.1819899435860023e+07  -1.1138079304525522e+06  -1.5643179611450987e+04  -9.9648937105369823e+03  -4.7690504525292710e+02  -4.0723481814982776e+00  3.8023116158854499e+01  1.9483011672204871e+01  1.9873137086399442e+01  2.0287395858374950e+01  2.0198134626870505e+01  2.0210052979199681e+01  2.0206854644544414e+01  2.0201933977381081e+01  2.0193482085284010e+01  2.0186068018151950e+01  2.0182837954118472e+01  2.0219950318887335e+01  2.0229157185465795e+01  2.0251836109914866e+01  2.0285228409877909e+01  2.0327774200074757e+01  2.0379946549857639e+01  2.0440599894749013e+01  2.0509950050465807e+01  2.0585968674765180e+01  2.0668687124831568e+01  2.0754105413486180e+01  2.0839619105112593e+01  2.0920929773489732e+01  2.0993496842692856e+01  2.1053628764195032e+01  2.1096425898800966e+01  2.1120041949283525e+01  2.1123843293631609e+01  2.1106524607923426e+01  2.1073092482459440e+01  2.1024081520920234e+01  2.0963033335266342e+01  2.0895004705716339e+01  2.0825438760966730e+01  2.0760700633115107e+01  2.0712327550666807e+01  2.0690992255450226e+01  2.0692262392445361e+01  2.1501055256765483e+01  2.1502089270792499e+01  2.1507397017378242e+01  2.1516678193609426e+01  2.1530505447360643e+01  2.1549436292512386e+01  2.1574665888111838e+01  2.1609169126801081e+01  2.1652429718766765e+01  2.1703822381471312e+01  2.1770257997680879e+01  2.1849587491913020e+01  2.1944678900711850e+01  2.2053314557017753e+01  2.2176019200366898e+01  2.2312718397920293e+01  2.2462993391700135e+01  2.2626008184345572e+01  2.2799530590258691e+01  2.2977745227369283e+01  2.3154314825939750e+01  2.3321762927248844e+01  2.3474273839090927e+01  2.3603667892474615e+01  2.3700821986410386e+01  2.3762562065964186e+01  2.0174870296535069e+01  2.0287223764073524e+01  2.0204832930129154e+01  2.0229986914462412e+01  2.0246092267123331e+01  2.0278303419978727e+01  2.0319810486746832e+01  2.0371707994261406e+01  2.0436114819988688e+01  2.0512675111189200e+01  2.0603994226016237e+01  2.0710833406276354e+01  2.0832414525758253e+01  2.0968350837819411e+01  2.1115705207372436e+01  2.1270884597377261e+01  2.1427809104246670e+01  2.1582908615128865e+01  2.1724419310412262e+01  2.1853086328247279e+01  2.1957094164771028e+01  2.2035496810115131e+01  2.2080501126205540e+01  2.2097886500550466e+01  2.2078891342898753e+01  2.2033335856161635e+01  2.1959648069447564e+01  2.1865448590330960e+01  2.1756088542661910e+01  2.1634557144843292e+01  2.1508023201774108e+01  2.1374916621737324e+01  2.1243359844377387e+01  2.1114486389884039e+01  2.0991085470548754e+01  2.0876043171541085e+01  2.0768747666942531e+01  2.0672410347685798e+01  2.0585607394381622e+01  2.0509530939175995e+01  2.0442952508788913e+01  2.0385690142364670e+01  2.0337854747429194e+01  2.0294992104142896e+01  2.0312066375107637e+01  2.0188720782468035e+01  2.0045212785257565e+01  1.9929766816311499e+01  2.0172466752016920e+01  1.9235418560894750e+01  2.1678300864581217e+01  2.0295626698020776e+01  2.4173328845630426e+01  2.0040668947363525e+01  -4.5014341518493427e+11  2.1045024539095465e+01  2.4327666622269781e+01  2.0039542163079837e+01  -8.6928278826195133e+08  2.0814943620877038e+01  2.0345805299295844e+01  2.1153470142341728e+01  2.2645826204506957e+01  2.0218046562114285e+01  1.6558006170106278e+03  2.1258104538645973e+01  2.3952379187124848e+01  2.1622265950155469e+01  -4.3258156462655621e+11  2.0395466488056140e+01  2.0039616366773576e+01  2.5639785146752089e+01  2.1315222712619619e+01  2.0751839761647371e+01  1.6079428719886167e+06  2.1321688956042784e+01  2.3799390896644269e+01  2.0550375950506957e+01  2.1297634069578045e+01  2.0879950274209861e+01  2.2186760266328125e+01  2.0064733689367621e+01  2.0300214383945001e+01  2.3298337639535514e+01  2.9683838181912498e+09  2.0125333365132743e+01  -7.1704544137813585e+01  2.1244253487900302e+01  2.0204355275593805e+01  2.1519795760169401e+01  2.2389665818604165e+01  2.0269701202766989e+01  2.0310524816930641e+01  3.0483446989959248e+01  2.1506444939422334e+01  2.1156055622582311e+01  2.0375651088107112e+01  2.2624483488667813e+01  2.1124573659159644e+01  2.0051962254200220e+01  2.4046080133733987e+01  4.7687214878785835e+10  2.1235346124577038e+01  7.1117496607603152e+02  2.0272942904294045e+01  2.0423427615233496e+01  2.1453660764335407e+01  2.2958500764951797e+01  2.1109182306964307e+01  2.2244446427060289e+01  2.0249836503306089e+01  2.1263831543779936e+01  2.0183004384988056e+01  2.2716292137396380e+01  2.2183462272890143e+01  2.1775245625016296e+01  2.0200459324326818e+01  2.0223522563574132e+01  2.2978999849499882e+01  2.1030055199328732e+01  2.0886602112061638e+01  9.3942830809272546e+03  2.0142395969855365e+01  2.0532526927600404e+01  2.1806947331924231e+01  2.2053449210963596e+01  2.3679315404535281e+01  2.0148302183078883e+01  2.0542562265426184e+01  3.4663553896403668e+04  2.0185495633419297e+01  1.9901096336286361e+01  2.1270309055201647e+01  2.1982807753925385e+01  2.0688991687390132e+01  2.0740915333370133e+01  2.0979246458292156e+01  5.4523013829479702e+07  7.1620955665757284e+07  2.0444716422861198e+01  2.3586937650402611e+01  2.1406921650864980e+01  2.0073885072383248e+01  2.1228338725709630e+01  2.3539449408191562e+01  2.1416729502825596e+01  2.0045737633652148e+01  2.0100065140600567e+01  4.3746665139726801e+09  2.3810569578031220e+01  2.0046433202585277e+01  2.2042090961693146e+10  2.4203232139168779e+01  2.0983162895283005e+01  2.0159220794317427e+01  1.6969893763674004e+05  2.1020522598251134e+01  9.7635466451449432e+01  2.0063577978171853e+01  2.0934680944060151e+01  2.3241008996880648e+01  2.0071588520610597e+01  2.2015505249384262e+01  2.1482690877861369e+01  2.1151689594001862e+01  2.3886803620685889e+01  4.8702426695423096e+08  2.1565794432261821e+01  2.2688736164121106e+01  2.0274410593097297e+01  1.7705130292994294e+06  2.2387585917354240e+01  2.1311360474413455e+01  2.0368534705087502e+01  2.0427979257998246e+01  2.0546915977216408e+01  2.1460848918083808e+01  2.1463206627900515e+01  2.1817659905237733e+01  1.1167040293834975e+02  2.0342154593388759e+01  2.0548744362750000e+01  2.0760575785963258e+01  2.0297726738566901e+01  6.2411165979828348e+05  2.0654651531945358e+01  2.1169664873697922e+01  2.2347886247626931e+01  2.0872006139148812e+01  2.3258911113604807e+01  2.0106349056115935e+01  2.0300457570249481e+01  2.1369932797117130e+01  2.3949293295159698e+01  2.0139519453895165e+01  2.0048666627504613e+01  2.1266275442976006e+01  2.0309571815851097e+01  2.1177574686389512e+01  2.0040338034529377e+01  2.0163655452294460e+01  -7.1594012541585932e+09  2.1464403748230364e+01  2.0233994318919631e+01  2.0269948685785668e+01  2.1284350736673733e+01  2.4069308885909606e+01  -2.0483154467099872e+01  1.5492881021477427e+01  -5.2333991798538375e+02  2.1707228730825051e+01  2.2483421651972893e+01  2.1327648923942661e+01  2.2186864914644062e+01  2.1449674388442169e+01  2.1379004098665689e+01  2.1137902300906582e+01  2.0168383450719976e+01  2.0229180271977054e+01  2.0226990803343671e+01  2.0221789850193765e+01  2.0284441596969639e+01  5.4279794419015742e+12  2.1439542804553540e+01  3.9549526371473434e+10  2.0038797717316793e+01  2.3840823197063838e+01  2.0038710715286758e+01  2.4370106070571353e+01  2.0040330532703194e+01  2.0042905931035207e+01  2.4260655160152396e+01  -5.2133288274739660e+07  2.0729447692880541e+01  -7.2027676977485819e+09  2.0923276625630891e+01  2.0872227322137054e+01  2.2179798160344642e+01  2.1575559849238566e+01  2.1294633128014056e+01  2.2383937096048506e+01  2.0347887686390596e+01  8.1229510278750861e+08  2.0993193364455752e+01  2.2959567326294820e+01  1.7646629035236772e+04  8.0391589444991837e+01  2.0460570398100757e+01  7.4667233278895355e+10  2.0313536950355395e+01  2.1045260292369100e+01  2.1413480636008661e+01  2.2609752687805940e+01  2.3516215533674337e+01  2.0644273424409629e+01  2.1053736568396168e+01  2.0216146299335975e+01  2.0188061869910687e+01  2.0356763081028209e+01  2.3315902364676532e+01  2.1291951978116398e+01  -1.0431280625143127e+10  2.4285322628070389e+01  2.3722359710897184e+01  1.1229142060059440e+05  2.1120167520464200e+01  2.2891274721285768e+01  2.0095951753846006e+01  2.0887447292072082e+01  -1.7773851594440135e+01  2.0058212852493018e+01  2.0328435230060908e+01  2.1838074145143977e+01  2.0371248613826602e+01  2.0627845717590422e+01  2.4346566747287564e+01  2.0040969819041710e+01  -3.7506398336367857e+08  2.0770670430939507e+01  2.0630292105823720e+01  1.7402860088962814e+01  2.1421260562067392e+01  2.1033943530357949e+01  2.1108320070997888e+01  2.0055896981554802e+01  2.0043216391567107e+01  2.0756091262856273e+01  2.4020760391057937e+01  2.3929372306450194e+01  2.4110692037347466e+01  2.1699370448163979e+01  2.1560595884429336e+01  2.3686647958989901e+01  2.0409798785867252e+01  2.1499807116755214e+01  2.1152919294959119e+01  2.0091744653398695e+01  2.0359194119950338e+01  2.0223207486014289e+01  2.2013840273601840e+01  2.0346779319125151e+01  -2.3082233349284354e+11  1.7049331173872325e+01  3.1671250854636475e+02  2.0754421163549956e+01  2.0198205824861635e+01  2.0117449003949861e+01  2.1335192095236440e+01  2.1203097596369808e+01  2.0190971269049363e+01  2.0203298620404230e+01  2.2025041919069089e+01  2.2210028070351946e+01  2.0331060047581026e+01  1.4478776465687744e+07  2.0231387321123755e+01  2.0498323198648432e+01  2.2410010976241654e+01  2.0823675588162065e+01  2.3099100216652122e+01  2.1004292121769133e+01  2.1063468733570968e+01  2.1262354983115891e+01  2.2587360459576033e+01  2.2741028547058971e+01  2.1176979243729594e+01  2.0241705408941915e+01  2.0222100934179579e+01  2.2437404557909957e+01  2.1394001517807911e+01  2.2128981460679629e+01  2.3051546407872017e+01  2.1062210458905508e+01  2.1571969745205799e+01  2.0292477820558865e+01  1.9699852023536874e+01  2.1942048100465339e+01  2.1844980002234131e+01  2.1926820267617021e+01  2.3421260988868681e+01  1.2448857631384948e+02  6.8947011363795809e+02  1.1339363133332715e+03  2.1612995510933523e+01  4.3752661137017391e+01  2.0365420998933232e+01  2.1657118242008000e+01  2.0406565222065733e+01  2.0476546878853519e+01  2.0265872082235269e+01  2.1203823128282654e+01  2.1199698004425528e+01  2.0303616605773318e+01  2.0440684894605727e+01  3.2910434027848816e+10  2.3719515193876465e+01  2.0133720967495361e+01  2.0883494250903855e+01  1.1178851915984910e+07  -1.1211306397763131e+07  2.0175625592678436e+01  2.0131908651315708e+01  2.0116912523536815e+01  2.1163648785023970e+01  2.1835990050922021e+01  2.1991306458337863e+01  1.9251849525963507e+01  2.0372641833757697e+01  2.0683024985917353e+01  2.0768419298460941e+01  2.1155671265452405e+01  2.0638076208375075e+01  2.0081056931360280e+01  4.7247058779972866e+00  2.0059532591098634e+01  2.1200414696593935e+01  2.0898848532422917e+01  -1.0999209557797251e+07  2.0039293343461274e+01  2.4382106164947704e+01  2.0691443164775944e+01  2.1315395068563259e+01  2.0647075208968214e+01  2.2047041679128380e+01  2.0478612116099832e+01  2.9581623746612117e+01  2.0090905260622506e+01  2.1155701005417043e+01  2.1375679905092227e+01  2.2297109155093192e+01  2.0173594266576671e+01  6.0258049661204498e+06  3.3343253204673856e+07  4.0409548504219431e+08  6.3052092937064078e+06  2.0265982185844273e+01  2.2219132732413396e+01  2.1668984887046321e+01  2.0206383316329767e+01  2.0187881071696427e+01  2.0246392159305643e+01  2.0256983609338675e+01  6.8396853357182081e+01  2.1836938435188245e+01  2.1678219527401257e+01  2.3378942994870950e+01  2.2187960699644819e+01  2.0633811350738828e+01  2.3662388856040074e+01  2.1366096319776904e+01  2.0786526674007600e+01  2.0196355706640222e+01  2.3899605755609119e+01  2.1601972333392556e+01  1.5363876365037126e+04  4.6453148395463704e+03  4.9273884164142408e+09  2.1221529131138372e+01  2.3163147198003593e+01  2.0951030493561127e+01  2.1245112450855782e+01  2.1323378981429943e+01  2.1295568777501988e+01  2.2085586914002125e+01  2.0206548965797964e+01  2.4118442610586072e+01  -1.2208524151564746e+08  2.2329711963063094e+01  2.0509548776455084e+01  2.1244383231851824e+01  2.0043076008800380e+01  1.5401505787562105e+03  2.0391629915110641e+01  2.2042539681546462e+01  2.0203662786978747e+01  2.2872244198044754e+01  2.0162136138380792e+01  9.5275077533794296e+10  2.1486416573182758e+01  2.0473919902212380e+01  2.2088119338988204e+01  2.0077321458205237e+01  2.1255722128321086e+01  2.0039924443943846e+01  2.0717779914206499e+01  2.4371716859053254e+01  -5.6414236804129809e+07  2.1078359490132115e+01  2.0197857122272939e+01  9.0530946288669840e+07  2.0116160795078066e+01  2.1410195189714145e+01  2.0415774055942730e+01  2.0055967390759609e+01  2.0296837682340637e+01  2.3760824352568150e+01  2.1522752499510418e+01  2.1376080153760903e+01  2.1183490060514902e+01  2.0154002251366983e+01  2.0719303400732240e+01  2.0839401731257919e+01  2.1478117112596067e+01  2.0045675073979314e+01  2.1335426218165519e+01  2.0152826039444843e+01  2.1022414929444491e+01  2.2763627224240654e+01  2.1454422571234627e+01  1.0292269113668738e+05  2.2791426427436100e+01  2.0412270392826837e+01  3.4976723423947062e+05  7.5441067632317363e+03  6.6856385011275725e+03  2.0258145985874684e+01  2.0260201371981825e+01  1.4311780336965725e+10  2.1113705557088085e+01  2.3148536449857517e+01  2.0894000439663643e+01  2.0311263204523687e+01  1.5075414806622183e+01  2.1452557305909501e+01  2.1210448072604752e+01  2.7309464419817303e+11  2.2545022428300342e+01  2.1199490615591223e+01  2.1189669526673189e+01  2.0213591316919949e+01  2.1353601860779598e+01  2.1011160068320894e+01  2.3369222272438289e+01  2.0066496880775169e+01  2.1101662383750543e+01  2.1377279142636805e+01  2.0053162349470892e+01  2.0039271530373981e+01  2.0042395210592840e+01  -4.5062479960917950e+09  2.4034107603247669e+01  2.0579235493205683e+01  2.2643486992237111e+01  2.0240251803851820e+01  2.1104763220885204e+01  2.0857674988922255e+01  2.0552255588476871e+01  2.1346362114688425e+01  2.2256434448980521e+01  2.2830334544975653e+01  2.0084095613898331e+01  2.0921052613622575e+01  2.0049551322211794e+01  -2.1462852550970865e+06  2.1476965031756425e+01  2.0524265861759368e+01  2.3554748635580133e+01  2.0067705178529504e+01  2.3430592540084284e+01  2.3572226482966290e+01  -1.0881720540145919e+09  -2.4153610511432414e+09  2.3798812139410764e+01  2.3858984557992397e+01  2.1909965308489969e+01  2.0485392610890923e+01  2.0227745739302826e+01  2.0175896299732020e+01  2.0511626395194920e+01  2.0412533252316617e+01  2.0229318569122317e+01  -1.6470736519385137e+12  2.0244019907104498e+01  2.0612819709889656e+01  2.2245604357569864e+01  2.2102626305990135e+01  2.0150960993128145e+01  2.0147776607108625e+01  2.0211226758830627e+01  2.0483884770060509e+01  -2.4127120083678665e+02  2.2141297885114483e+01  2.1474118288408821e+01  2.1188288832832203e+01  2.1642502595313978e+01  2.1513394697659230e+01  2.2547383534048187e+01  4.3974208415275467e+10  2.4219322397632091e+01  2.4177249886255137e+01  2.4170917840629230e+01  5.5532750065866337e+09  -1.9545778239790859e+09  5.3789004807460727e+05  2.1100348574855737e+01  4.9308865120368704e+04  2.1678354687907760e+01  -8.6060493654992365e+02  2.0049029346216567e+01  2.0042814949948404e+01  2.1058177925333148e+01  2.0982758766894516e+01  2.1026363906331163e+01  2.0203546094701025e+01  2.4241010960299878e+01  2.0935686450541162e+01  2.0042313907828984e+01  1.8394682172872913e+09  2.0962262686016601e+01  2.0324049432902790e+01  2.0841657759635190e+01  2.2458603233271333e+01  2.1422357243578212e+01  2.0038863105710863e+01  2.1483016560495908e+01  1.9806504395957774e+01  3.2908878379982285e+04  1.0876782351279793e+04  7.9624928208957601e+05  2.3076199147060716e+01  2.0316218364531526e+01  2.3845067263747858e+01  3.1903694496061257e+05  2.1117915294215081e+01  2.0080965168077242e+01  2.1616668963000514e+01  2.0979385835204976e+01  2.5592901006830005e+11  2.0375004889691326e+01  2.3748446320237985e+01  6.6924227997720682e+03  2.0038377534077121e+01  1.8971538702708013e+01  2.2181973690276511e+01  2.0953466967051291e+01  2.0777871050187077e+01  2.0395179144605624e+01  2.0288462886945858e+01  2.0255907392855153e+01  2.3114875904368020e+01  2.1936044510570373e+01  2.0803526574264623e+01  2.0292142494052666e+01  2.0101702573755791e+01  2.0195961814703114e+01  2.0292118589996196e+01  2.0282614173457848e+01  2.1126974107704783e+01  2.1532813311670235e+01  2.0910986778406894e+01  2.0040915577141067e+01  2.1462580632050848e+01  2.0069656432677892e+01  2.2534968229304205e+01  2.1312317171054943e+01  2.1368952812638142e+01  2.1318823811407213e+01  2.1499539023503903e+01  2.0146703025973949e+01  2.0605722995197901e+01  3.4241851623081175e+01  1.6320484883668808e+01  2.3643536767765025e+02  2.0361392813240020e+01  2.0535467133932455e+09  2.0060702034018533e+01  2.0433421228451806e+01  2.3845872662067908e+01  2.3974378339394029e+01  2.3406634911866526e+01  2.0354106428111717e+01  2.1009595870250422e+01  2.0922544773707092e+01  2.0142990331488310e+01  2.0238250018977396e+01  2.3190103492727353e+01  2.1933176530174062e+01  -5.8509295520598841e+08  2.1346017793457630e+01  2.1537707320304367e+01  2.0106002462016566e+01  2.3030401104821923e+01  2.0354800507314820e+01  2.1695080764836266e+01  1.7821754439288132e+01  2.1824056236143790e+01  2.0533243383056639e+01  2.0566580944902693e+01  2.0209876400462889e+01  2.2388556982934102e+01  2.0307986752892951e+01  1.2818300267548977e+02  2.0253420091844312e+01  2.0234243250644539e+01  2.2127083249714634e+01  2.0294718571968904e+01  2.0382966803340445e+01  2.1857355757228717e+01  2.0452796468892885e+01  2.1263834564192546e+01  2.1479682013952971e+01  4.711528949178