<?xml version="1.0"?>
<VTKFile type="UnstructuredGrid"  version="0.1"  >
<UnstructuredGrid>
<Piece  NumberOfPoints="2331" NumberOfCells="4248">
<Points>
<DataArray  type="Float64"  NumberOfComponents="3"  format="ascii">0 0.3 0  0 0 0  0.04999999999999999 0 0  0.0514582251803892 0.02410733605106462 0  0.0558116365147896 0.04786313285751154 0  0.06299675146291706 0.07092097740850717 0  0.07290879486935808 0.09294463440875382 0  0.08540322682126872 0.1136129493462312 0  0.1002978503657798 0.132624531648159 0  0.117375468351841 0.1497021496342203 0  0.1363870506537689 0.1645967731787313 0  0.1570553655912463 0.177091205130642 0  0.1790790225914929 0.187003248537083 0  0.2021368671424885 0.1941883634852104 0  0.2258926639489354 0.1985417748196108 0  0.25 0.2 0  0.2741073360510646 0.1985417748196108 0  0.2978631328575116 0.1941883634852104 0  0.3209209774085071 0.187003248537083 0  0.3429446344087537 0.177091205130642 0  0.3636129493462312 0.1645967731787313 0  0.3826245316481591 0.1497021496342202 0  0.3997021496342202 0.132624531648159 0  0.4145967731787313 0.1136129493462312 0  0.427091205130642 0.09294463440875371 0  0.4370032485370829 0.07092097740850713 0  0.4441883634852104 0.04786313285751155 0  0.4485417748196108 0.02410733605106461 0  0.45 0 0  0.55 0 0  0.5514582251803892 0.02410733605106462 0  0.5558116365147896 0.04786313285751154 0  0.5629967514629171 0.07092097740850717 0  0.5729087948693581 0.09294463440875382 0  0.5854032268212688 0.1136129493462312 0  0.6002978503657798 0.132624531648159 0  0.617375468351841 0.1497021496342203 0  0.6363870506537689 0.1645967731787313 0  0.6570553655912463 0.177091205130642 0  0.6790790225914929 0.187003248537083 0  0.7021368671424885 0.1941883634852104 0  0.7258926639489354 0.1985417748196108 0  0.75 0.2 0  0.7741073360510646 0.1985417748196108 0  0.7978631328575116 0.1941883634852104 0  0.8209209774085071 0.187003248537083 0  0.8429446344087537 0.177091205130642 0  0.8636129493462312 0.1645967731787313 0  0.8826245316481591 0.1497021496342202 0  0.8997021496342202 0.132624531648159 0  0.9145967731787312 0.1136129493462312 0  0.927091205130642 0.09294463440875371 0  0.9370032485370829 0.07092097740850713 0  0.9441883634852104 0.04786313285751155 0  0.9485417748196108 0.02410733605106461 0  0.95 0 0  1 0 0  1 0.3 0  0.9758926639489353 0.3014582251803892 0  0.9521368671424885 0.3058116365147896 0  0.9290790225914928 0.3129967514629171 0  0.9070553655912461 0.3229087948693581 0  0.8863870506537688 0.3354032268212687 0  0.867375468351841 0.3502978503657798 0  0.8502978503657798 0.367375468351841 0  0.8354032268212687 0.3863870506537689 0  0.822908794869358 0.4070553655912464 0  0.8129967514629171 0.4290790225914929 0  0.8058116365147896 0.4521368671424885 0  0.8014582251803892 0.4758926639489354 0  0.8 0.4999999999999999 0  0.8014582251803892 0.5241073360510646 0  0.8058116365147896 0.5478631328575115 0  0.8129967514629171 0.5709209774085071 0  0.8229087948693581 0.5929446344087538 0  0.8354032268212688 0.6136129493462312 0  0.8502978503657798 0.632624531648159 0  0.867375468351841 0.6497021496342202 0  0.8863870506537689 0.6645967731787313 0  0.9070553655912463 0.677091205130642 0  0.9290790225914929 0.6870032485370829 0  0.9521368671424885 0.6941883634852104 0  0.9758926639489354 0.6985417748196108 0  1 0.7 0  1 1 0  0.95 1 0  0.9485417748196108 0.9758926639489353 0  0.9441883634852104 0.9521368671424885 0  0.9370032485370829 0.9290790225914928 0  0.927091205130642 0.9070553655912463 0  0.9145967731787312 0.8863870506537688 0  0.8997021496342201 0.8673754683518409 0  0.882624531648159 0.8502978503657798 0  0.863612949346231 0.8354032268212686 0  0.8429446344087537 0.822908794869358 0  0.8209209774085071 0.8129967514629171 0  0.7978631328575114 0.8058116365147896 0  0.7741073360510646 0.8014582251803892 0  0.75 0.8 0  0.7258926639489353 0.8014582251803892 0  0.7021368671424885 0.8058116365147896 0  0.6790790225914928 0.8129967514629171 0  0.6570553655912461 0.8229087948693581 0  0.6363870506537688 0.8354032268212688 0  0.617375468351841 0.8502978503657798 0  0.6002978503657798 0.867375468351841 0  0.5854032268212687 0.8863870506537689 0  0.572908794869358 0.9070553655912463 0  0.5629967514629171 0.9290790225914929 0  0.5558116365147896 0.9521368671424885 0  0.5514582251803892 0.9758926639489355 0  0.55 0.9999999999999999 0  0.45 0.9999999999999999 0  0.4485417748196108 0.9758926639489353 0  0.4441883634852104 0.9521368671424885 0  0.4370032485370829 0.9290790225914928 0  0.427091205130642 0.9070553655912463 0  0.4145967731787313 0.8863870506537688 0  0.3997021496342201 0.8673754683518409 0  0.382624531648159 0.8502978503657798 0  0.363612949346231 0.8354032268212686 0  0.3429446344087536 0.822908794869358 0  0.3209209774085071 0.8129967514629171 0  0.2978631328575115 0.8058116365147896 0  0.2741073360510646 0.8014582251803892 0  0.25 0.8 0  0.2258926639489353 0.8014582251803892 0  0.2021368671424885 0.8058116365147896 0  0.1790790225914928 0.8129967514629171 0  0.1570553655912462 0.8229087948693581 0  0.1363870506537688 0.8354032268212688 0  0.117375468351841 0.8502978503657798 0  0.1002978503657797 0.867375468351841 0  0.08540322682126869 0.8863870506537689 0  0.07290879486935797 0.9070553655912463 0  0.06299675146291703 0.9290790225914929 0  0.05581163651478957 0.9521368671424885 0  0.0514582251803892 0.9758926639489355 0  0.04999999999999999 0.9999999999999999 0  0 1 0  -0 0.7000000000000001 0  0.0241073360510646 0.6985417748196108 0  0.04786313285751161 0.6941883634852104 0  0.07092097740850711 0.6870032485370829 0  0.09294463440875372 0.677091205130642 0  0.1136129493462312 0.6645967731787312 0  0.1326245316481591 0.6497021496342202 0  0.1497021496342202 0.632624531648159 0  0.1645967731787313 0.6136129493462312 0  0.177091205130642 0.5929446344087537 0  0.187003248537083 0.5709209774085071 0  0.1941883634852104 0.5478631328575115 0  0.1985417748196108 0.5241073360510646 0  0.2 0.5 0  0.1985417748196108 0.4758926639489353 0  0.1941883634852104 0.4521368671424885 0  0.1870032485370829 0.4290790225914928 0  0.177091205130642 0.4070553655912463 0  0.1645967731787313 0.3863870506537688 0  0.1497021496342202 0.3673754683518409 0  0.132624531648159 0.3502978503657798 0  0.113612949346231 0.3354032268212686 0  0.09294463440875361 0.322908794869358 0  0.07092097740850711 0.3129967514629171 0  0.04786313285751148 0.3058116365147896 0  0.02410733605106464 0.3014582251803892 0  0.6985417748196108 0.5241073360510646 0  0.7 0.5 0  0.6985417748196108 0.4758926639489353 0  0.6941883634852104 0.4521368671424885 0  0.6870032485370829 0.4290790225914928 0  0.677091205130642 0.4070553655912463 0  0.6645967731787312 0.3863870506537688 0  0.6497021496342201 0.3673754683518409 0  0.632624531648159 0.3502978503657798 0  0.613612949346231 0.3354032268212686 0  0.5929446344087537 0.322908794869358 0  0.5709209774085071 0.3129967514629171 0  0.5478631328575114 0.3058116365147896 0  0.5241073360510646 0.3014582251803892 0  0.4999999999999999 0.3 0  0.4758926639489353 0.3014582251803892 0  0.4521368671424885 0.3058116365147896 0  0.4290790225914928 0.3129967514629171 0  0.4070553655912462 0.3229087948693581 0  0.3863870506537688 0.3354032268212687 0  0.367375468351841 0.3502978503657798 0  0.3502978503657798 0.367375468351841 0  0.3354032268212687 0.3863870506537689 0  0.322908794869358 0.4070553655912464 0  0.3129967514629171 0.4290790225914929 0  0.3058116365147896 0.4521368671424885 0  0.3014582251803892 0.4758926639489354 0  0.3 0.4999999999999999 0  0.3014582251803892 0.5241073360510646 0  0.3058116365147896 0.5478631328575115 0  0.3129967514629171 0.5709209774085071 0  0.3229087948693581 0.5929446344087538 0  0.3354032268212687 0.6136129493462312 0  0.3502978503657798 0.632624531648159 0  0.367375468351841 0.6497021496342202 0  0.3863870506537689 0.6645967731787313 0  0.4070553655912463 0.677091205130642 0  0.4290790225914929 0.6870032485370829 0  0.4521368671424885 0.6941883634852104 0  0.4758926639489354 0.6985417748196108 0  0.4999999999999999 0.7 0  0.5241073360510646 0.6985417748196108 0  0.5478631328575116 0.6941883634852104 0  0.5709209774085071 0.6870032485370829 0  0.5929446344087537 0.677091205130642 0  0.6136129493462312 0.6645967731787312 0  0.6326245316481591 0.6497021496342202 0  0.6497021496342202 0.632624531648159 0  0.6645967731787312 0.6136129493462312 0  0.677091205130642 0.5929446344087537 0  0.6870032485370829 0.5709209774085071 0  0.6941883634852104 0.5478631328575115 0  0 0.15 0  1 0.15 0  1 0.85 0  0 0.8500000000000001 0  0 0.075 0  1 0.075 0  1 0.925 0  0 0.925 0  0.5 0.8127595604293815 0  0.5069440078039168 0.190422209288238 0  0.25 0.3127595604293815 0  0.756944007803917 0.3095777907117619 0  0.756944007803917 0.6904222092882382 0  0.25 0.6872404395706185 0  0 0.225 0  0.4255768646051012 0.2241073097134061 0  1 0.7749999999999999 0  0.6773391559270888 0.2766774022734219 0  1 0.225 0  0.6755768646051011 0.7241073097134062 0  0 0.7750000000000001 0  0.5818971135297744 0.2287925518358889 0  0.8318971135297746 0.728792551835889 0  0.1659156081861886 0.7301636995921477 0  0.08376842746533225 0.2299656297760495 0  0.4236002201977974 0.7746535834185855 0  0.0840843918138115 0.7698363004078523 0  0.3340843918138113 0.7301636995921477 0  0.3340843918138114 0.2698363004078523 0  0.9159156081861887 0.2301636995921477 0  0.5840843918138116 0.7698363004078522 0  0.1659156081861887 0.2698363004078523 0  0.9162315725346678 0.7700343702239506 0  0.8340843918138114 0.2698363004078523 0  0.75 0.6146645247768686 0  0.5 0.1125158665330878 0  0.75 0.3874841334669124 0  0.2504983345544904 0.6122915843562002 0  0.2504983345544902 0.3877084156437999 0  0.5 0.8879783056303169 0  0.7005361650220154 0.3333055947145943 0  0.70416808765371 0.6599554817221275 0  0.449930214263529 0.1678187287522426 0  0.2247310981387008 0.7415600637745463 0  0.5155081196221678 0.7563797802146907 0  0.2752689018612993 0.2584399362254537 0  0.05605196690611226 0.8246131191226815 0  0.9439480330938878 0.1
[...]
<PointData  Scalars="Temperature"> 
<DataArray  type="Float64"  Name="Temperature"  format="ascii">2.2441444683847351e+01  2.2840742470824718e+01  2.2835058949589943e+01  2.2829377382535757e+01  2.2812707572738020e+01  2.2785042108122585e+01  2.2745817552886937e+01  2.2693545234256643e+01  2.2629178781573675e+01  2.2552494272313947e+01  2.2462670262283392e+01  2.2361113236157511e+01  2.2250324838036807e+01  2.2132147573386391e+01  2.2007919783186630e+01  2.1881600675556733e+01  2.1755437164052541e+01  2.1631141581286546e+01  2.1514049314372205e+01  2.1403395161343884e+01  2.1303533807034874e+01  2.1215435615727777e+01  2.1136080116648991e+01  2.1070337476487364e+01  2.1015783711670856e+01  2.0975971624013344e+01  2.0945246518815271e+01  2.0927981890946764e+01  2.0921684447659040e+01  2.0725452049755219e+01  2.0718841485167516e+01  2.0698607320351613e+01  2.0664891987766019e+01  2.0621963947054329e+01  2.0569645536765929e+01  2.0511798388729268e+01  2.0453460905613252e+01  2.0394289689877361e+01  2.0337469009314997e+01  2.0284822513119160e+01  2.0237341580013808e+01  2.0195778098813189e+01  2.0160393030507411e+01  2.0130749977674814e+01  2.0106225975843230e+01  2.0086572934834763e+01  2.0070761145225340e+01  2.0058422072181706e+01  2.0048747304951792e+01  2.0041373954055018e+01  2.0035861824806759e+01  2.0031888261832176e+01  2.0029206232539153e+01  2.0027440849816514e+01  2.0026462828732477e+01  2.0026154643974497e+01  2.0024293956480246e+01  2.0023029333966178e+01  2.0025025585517295e+01  2.0030102766123559e+01  2.0037209784787223e+01  2.0045568738187146e+01  2.0054730029099417e+01  2.0063842929496218e+01  2.0072828503508248e+01  2.0080624707415875e+01  2.0087180711803068e+01  2.0091042253616372e+01  2.0092747748172176e+01  2.0091545323814540e+01  2.0087713579061994e+01  2.0082489961591307e+01  2.0075141006854114e+01  2.0066656699183774e+01  2.0057899345763705e+01  2.0049087430929664e+01  2.0040592207230343e+01  2.0033111629131177e+01  2.0026363107337975e+01  2.0020752542773206e+01  2.0016137188281565e+01  2.0012584893019312e+01  2.0010202744662180e+01  2.0009255667126954e+01  2.0003729449575843e+01  2.0003999917396740e+01  2.0004203608485753e+01  2.0004738153529512e+01  2.0005565459895166e+01  2.0006701515908841e+01  2.0008295349775782e+01  2.0010461815179038e+01  2.0013291342081011e+01  2.0016959089849987e+01  2.0021688906698124e+01  2.0027675425039781e+01  2.0034976089149104e+01  2.0043742013880472e+01  2.0053734316454499e+01  2.0065068300932115e+01  2.0076985500380125e+01  2.0089532798507495e+01  2.0101087857917136e+01  2.0111647618819912e+01  2.0120056780878169e+01  2.0126098516850607e+01  2.0128450494887961e+01  2.0128190829835983e+01  2.0124809146957503e+01  2.0119155383562745e+01  2.0113928118162782e+01  2.0111534823796806e+01  2.0140702047093761e+01  2.0147305869730420e+01  2.0162878016109779e+01  2.0185025434457692e+01  2.0212440186024125e+01  2.0245617709487874e+01  2.0283931753267144e+01  2.0327593744323384e+01  2.0375382001681270e+01  2.0427308721948251e+01  2.0480864082675119e+01  2.0534553333917980e+01  2.0585493060153812e+01  2.0631102975582237e+01  2.0668987209453313e+01  2.0696058919249211e+01  2.0710996042146736e+01  2.0713649953949272e+01  2.0702910179816438e+01  2.0682238961588052e+01  2.0651655142436557e+01  2.0613406624434120e+01  2.0570310300065969e+01  2.0525392835619087e+01  2.0482188431900322e+01  2.0448330700776271e+01  2.0432721494312709e+01  2.0434075630906346e+01  2.0990249522640646e+01  2.0990813030038829e+01  2.0994287448727832e+01  2.1000398398381023e+01  2.1009457371392415e+01  2.1021838385929851e+01  2.1038233233464428e+01  2.1060794994329125e+01  2.1088779307318983e+01  2.1121395773801570e+01  2.1163671651254962e+01  2.1213652406287430e+01  2.1273728763117074e+01  2.1342564037580097e+01  2.1420762369340824e+01  2.1508431299132216e+01  2.1604875030158837e+01  2.1709103650061582e+01  2.1819469632216940e+01  2.1932527976746453e+01  2.2044212065060385e+01  2.2150055792007471e+01  2.2246440521071353e+01  2.2328046397209132e+01  2.2389369180360468e+01  2.2428305571307064e+01  2.0120354888172162e+01  2.0125857590486525e+01  2.0134574098290944e+01  2.0146623347409360e+01  2.0162785347834539e+01  2.0183669017221494e+01  2.0210126849955760e+01  2.0243206804991686e+01  2.0284052641108246e+01  2.0332454620666088e+01  2.0390191899711294e+01  2.0457609625128434e+01  2.0534233786864903e+01  2.0619867441823295e+01  2.0712670610239350e+01  2.0810321140213038e+01  2.0909088493430641e+01  2.1006878867254908e+01  2.1095711561377460e+01  2.1176843900965512e+01  2.1242493183743640e+01  2.1292197168612248e+01  2.1320645978287509e+01  2.1332665562017294e+01  2.1321428667375248e+01  2.1294246825179361e+01  2.1248889527044778e+01  2.1190424102177840e+01  2.1121859658473980e+01  2.1044768512889899e+01  2.0964565660010919e+01  2.0880120506281013e+01  2.0796816412603171e+01  2.0715232099870924e+01  2.0637161719519760e+01  2.0564293108831937e+01  2.0496315756975967e+01  2.0435192268189653e+01  2.0380032207365790e+01  2.0331582410703017e+01  2.0289172601777544e+01  2.0252605581392491e+01  2.0221358930157777e+01  2.0195554173251910e+01  2.0174164702339780e+01  2.0156716394104357e+01  2.0142828133115600e+01  2.0132226786626330e+01  2.0124519626763263e+01  2.0119719575706696e+01  2.0117249204930268e+01  2.0117590261791619e+01  2.2709108337614076e+01  2.0024716576061191e+01  2.0006158747314469e+01  2.0673971629678235e+01  2.2805994415187531e+01  2.0024701926818970e+01  2.0004600033379809e+01  2.0520857587423979e+01  2.0221892375916692e+01  2.0742212048868314e+01  2.1713453587230152e+01  2.0138738611273229e+01  2.0065051562643671e+01  2.0813383001387319e+01  2.2563344556609120e+01  2.1048428016937464e+01  2.0007896274184965e+01  2.0253031670008173e+01  2.0023628413048002e+01  2.0104799580151216e+01  2.0855179342809855e+01  2.0481205152340348e+01  2.0032534440477811e+01  2.0855969273793807e+01  2.2464316119433150e+01  2.0354295576421389e+01  2.0840945775318342e+01  2.0566391453257864e+01  2.1413656928746327e+01  2.0040747699468927e+01  2.0161763695832956e+01  2.2139458981710600e+01  2.0013912880384613e+01  2.0079330862190464e+01  2.0082821832150529e+01  2.0803481980518693e+01  2.0130670206855214e+01  2.0984865927639984e+01  2.1543886681504251e+01  2.0172338557919836e+01  2.0200039392843440e+01  2.0101313443631486e+01  2.0979591843461726e+01  2.0743428036590462e+01  2.0242806852864501e+01  2.1703364024723928e+01  2.0724263524991006e+01  2.0032816139264181e+01  2.2625606213673475e+01  2.0008660018065168e+01  2.0793075731473269e+01  2.0068132212837892e+01  2.0173850064325709e+01  2.0272344583156450e+01  2.0947212402426857e+01  2.1918657374789060e+01  2.0714701855177704e+01  2.1443911288686753e+01  2.0158603361153361e+01  2.0817062004364175e+01  2.0118389829284109e+01  2.0096423078606048e+01  2.1409769413280554e+01  2.1149696148853600e+01  2.0125414754343598e+01  2.0141790486580803e+01  2.1933035859544827e+01  2.0662559994419354e+01  2.0565234865058546e+01  2.0055648734299929e+01  2.0089372236030581e+01  2.0339364568380148e+01  2.1161748310620059e+01  2.1334711552476744e+01  2.0116539807284866e+01  2.0154367780809530e+01  2.0348741525695228e+01  2.0047805334177767e+01  2.0118235703098588e+01  2.0107223580614487e+01  2.0821601680120342e+01  2.1281655502328274e+01  2.0442508107938984e+01  2.0477598575158829e+01  2.0628437564217514e+01  2.0022000361762370e+01  2.0021143033275465e+01  2.0286533382260018e+01  2.2323191490860026e+01  2.0919468033357706e+01  2.0046005996223684e+01  2.0790073913039965e+01  2.2296702453327473e+01  2.0924326342263466e+01  2.0027803867656296e+01  2.0063968157755916e+01  2.0010781699868353e+01  2.2467001448585886e+01  2.0029464350634303e+01  2.0006687270917766e+01  2.2726317535280089e+01  2.0630939922280987e+01  2.0099815779494730e+01  2.0045581216885420e+01  2.0649718173943384e+01  2.0085723577039108e+01  2.0132136542673130e+01  2.0601931468901327e+01  2.2100598872795803e+01  2.0046102683275837e+01  2.1290919388339962e+01  2.0970176127702370e+01  2.0738654992481372e+01  2.2521311112208362e+01  2.0014141583141150e+01  2.1022690414597182e+01  2.1744681755253733e+01  2.0174952560579115e+01  2.0032988376134384e+01  2.1540089329024664e+01  2.0846805122881754e+01  2.0234433768961619e+01  2.0276323203329639e+01  2.0351299856042573e+01  2.0936344297738504e+01  2.0133104868452993e+01  2.1186217455855335e+01  2.0089144415979060e+01  2.0220480519748836e+01  2.0354754812999218e+01  2.0488297204735836e+01  2.0190211615390556e+01  2.0034753154535835e+01  2.0415688857283826e+01  2.0749496211564527e+01  2.1527896840593893e+01  2.0558591724241431e+01  2.2115797454576398e+01  2.0066203784683381e+01  2.0193357414446595e+01  2.0884001973204384e+01  2.2562320991293628e+01  2.0089286492642380e+01  2.0030085712116048e+01  2.0820800488424169e+01  2.0198697606569286e+01  2.0761994874870833e+01  2.0024255129506923e+01  2.0103737943960759e+01  2.0009271506643831e+01  2.0957966807853524e+01  2.0149664497803457e+01  2.0175431115467937e+01  2.0830172664933993e+01  2.2641720296159420e+01  2.0077637477213344e+01  2.0105725337137631e+01  2.0072865346115655e+01  2.1113616096747293e+01  2.1612724649297608e+01  2.0853467616539987e+01  2.1398993925400514e+01  2.0949763452234787e+01  2.0902386511772843e+01  2.0725275071617244e+01  2.0105282207981961e+01  2.0149381924316668e+01  2.0142647690069950e+01  2.0139503422977626e+01  2.0183393375614102e+01  2.0007027754868574e+01  2.0943522980428178e+01  2.0005371576312871e+01  2.0022932101014003e+01  2.2484565835483160e+01  2.0024404651230888e+01  2.2831948897314867e+01  2.0024847661172181e+01  2.0027307242707071e+01  2.2764376130534643e+01  2.0003993939679187e+01  2.0461447301576722e+01  2.0008773687674324e+01  2.0593404149657935e+01  2.0558047112756793e+01  2.1397623390027665e+01  2.1014738330115225e+01  2.0837898087070400e+01  2.1541850522696699e+01  2.0223392962897801e+01  2.0015173726385630e+01  2.0634736437175047e+01  2.1923610809733631e+01  2.0052044458765206e+01  2.0062878638411377e+01  2.0298737155035759e+01  2.0009119195388493e+01  2.0200345325311858e+01  2.0669676963900081e+01  2.0916764561779704e+01  2.1690021092953280e+01  2.2280370933551367e+01  2.0412978383063521e+01  2.0675463778138802e+01  2.0137543887581437e+01  2.0119199225160983e+01  2.0232084001657476e+01  2.0108715948672355e+01  2.0125246991629176e+01  2.0005417073362619e+01  2.2778447697632689e+01  2.2414922411289908e+01  2.0042214710711409e+01  2.0722557410682619e+01  2.1874625940523313e+01  2.0060561273032395e+01  2.0568392198348089e+01  2.0097212891705844e+01  2.0036058424385814e+01  2.0213902193886142e+01  2.1192307759799611e+01  2.0129027684362701e+01  2.0404901566977745e+01  2.2816544631849933e+01  2.0026168513483327e+01  2.0004504704559739e+01  2.0489893364566029e+01  2.0403931206150069e+01  2.0107079129807019e+01  2.0914880093326659e+01  2.0661505751074124e+01  2.0715382711344716e+01  2.0036199017631191e+01  2.0026528524645972e+01  2.0483943924280190e+01  2.2607334749379284e+01  2.2549674006801219e+01  2.2668417442253105e+01  2.1113292598639404e+01  2.1011745474398399e+01  2.2384480428850260e+01  2.0263423071978121e+01  2.0984804251374939e+01  2.0736239642443802e+01  2.0059337702925131e+01  2.0230732716596741e+01  2.0142458160042381e+01  2.1316423181169238e+01  2.0156007691163175e+01  2.0007357747989367e+01  2.0117357984142068e+01  2.0082135287262521e+01  2.0477510321414108e+01  2.0123157791474927e+01  2.0072642899271482e+01  2.0873270731849630e+01  2.0768574730832558e+01  2.0101406998578351e+01  2.0131804374753280e+01  2.1299361469763088e+01  2.1437173325612974e+01  2.0211140703683618e+01  2.0025087539756797e+01  2.0148281437444560e+01  2.0315696709019580e+01  2.1563204542848332e+01  2.0530969594841888e+01  2.2009903839924522e+01  2.0647088624662800e+01  2.0678766175282572e+01  2.0815328556056979e+01  2.1684356436068725e+01  2.1777290721806036e+01  2.0759228210154788e+01  2.0158237991914529e+01  2.0138410642929397e+01  2.1574684287009845e+01  2.0906302518194980e+01  2.1359742423208775e+01  2.1979045647639428e+01  2.0683086974848326e+01  2.1031025981834187e+01  2.0187137111060942e+01  2.0111902137566258e+01  2.0091776296397594e+01  2.1184262663096625e+01  2.1254434632627582e+01  2.2215047990374895e+01  2.0084729983606270e+01  2.0071398195402438e+01  2.0068543052276734e+01  2.1031147819900529e+01  2.0097671368930552e+01  2.0235100045512063e+01  2.1066429735936481e+01  2.0262030342249346e+01  2.0306501161546642e+01  2.0170076186639164e+01  2.0769914564031179e+01  2.0771772020091337e+01  2.0193149318215863e+01  2.0281043335082476e+01  2.0010835060282655e+01  2.2412846175396940e+01  2.0082714930898391e+01  2.0558719018936124e+01  2.0024339694763583e+01  2.0018600473155914e+01  2.0111199845285654e+01  2.0083057483727814e+01  2.0075402445916875e+01  2.0743382208129638e+01  2.1172983731876915e+01  2.1281063800435764e+01  2.0113696027757726e+01  2.0133562122371554e+01  2.0441235089545785e+01  2.0489966115205917e+01  2.0742664299222835e+01  2.0407377585885804e+01  2.0051290402790652e+01  2.0092007004012022e+01  2.0037646319642366e+01  2.0774563183094912e+01  2.0576505363741873e+01  2.0003854963742121e+01  2.0025171035993107e+01  2.2838365261850981e+01  2.0433281179558595e+01  2.0849679245761621e+01  2.0416530123999166e+01  2.1324127236610789e+01  2.0307791198186973e+01  2.0107612576582724e+01  2.0056708851185977e+01  2.0734506678264069e+01  2.0903303879530711e+01  2.1483912404977666e+01  2.0111173030330026e+01  2.0027393226588924e+01  2.0023948592857931e+01  2.0018235252777163e+01  2.0028283845383068e+01  2.0179876679144719e+01  2.1448496541836764e+01  2.1093265849983293e+01  2.0129747690571804e+01  2.0115586140703154e+01  2.0157150536292203e+01  2.0140082228506021e+01  2.0081533825289508e+01  2.1199696729426080e+01  2.1077890323766336e+01  2.2190403838574284e+01  2.1409898878052914e+01  2.0407852134575741e+01  2.2374791743225476e+01  2.0885940570098072e+01  2.0505348145065163e+01  2.0125616704218174e+01  2.2527570011583506e+01  2.1052273884927658e+01  2.0051590804757023e+01  2.0059546749878177e+01  2.0010776461812895e+01  2.0786557661151591e+01  2.2052448527652622e+01  2.0611762436996095e+01  2.0801978554912765e+01  2.0857372754766679e+01  2.0838362555590610e+01  2.1358077672489692e+01  2.0123363667879186e+01  2.2671299622786528e+01  2.0016739071547143e+01  2.1512555817567783e+01  2.0329247803603000e+01  2.0806674525564169e+01  2.0026247741738249e+01  2.0068371364303420e+01  2.0254588444100971e+01  2.1302925357187878e+01  2.0130519593850902e+01  2.1863794233348660e+01  2.0101592742612727e+01  2.0008769496595747e+01  2.0976255006644390e+01  2.0303590022052099e+01  2.1336016019549934e+01  2.0049350117812406e+01  2.0811384116910791e+01  2.0025569021071355e+01  2.0452671919544503e+01  2.2831961575216607e+01  2.0004068338142382e+01  2.0692792598486228e+01  2.0125767601432262e+01  2.0019244577993970e+01  2.0073924391698792e+01  2.0918733840500899e+01  2.0263628328886313e+01  2.0034259553874563e+01  2.0165553506706534e+01  2.2436642312631776e+01  2.0997601288865134e+01  2.0895891301382282e+01  2.0759972639529963e+01  2.0097889643285740e+01  2.0462966865675668e+01  2.0540729789195403e+01  2.0971966243208172e+01  2.0027567626813997e+01  2.0868969280162180e+01  2.0095272022140442e+01  2.0656402863384454e+01  2.1797067641137886e+01  2.0933000347465843e+01  2.0041546408873639e+01  2.1809509173191572e+01  2.0268478768743101e+01  2.0038464320614700e+01  2.0057098278092838e+01  2.0056798185674307e+01  2.0164499426743582e+01  2.0167943504126434e+01  2.0011363413939957e+01  2.0711402304972477e+01  2.2046028149186405e+01  2.0570250660859401e+01  2.0199793124152695e+01  2.0114291961286412e+01  2.0936324383382683e+01  2.0778606796143666e+01  2.0007812426594469e+01  2.1647757197331881e+01  2.0774033876530758e+01  2.0756807754481873e+01  2.0135648494070150e+01  2.0888846157361758e+01  2.0638995039487266e+01  2.2187829164972140e+01  2.0043296383065506e+01  2.0706096418893573e+01  2.0897571476406547e+01  2.0032950837949166e+01  2.0023332544928895e+01  2.0025615307758461e+01  2.0011897700286575e+01  2.2618489579402464e+01  2.0366156056308572e+01  2.1718125958828789e+01  2.0152006478643763e+01  2.0709309258565803e+01  2.0549890928794035e+01  2.0353568671097197e+01  2.0859777512533814e+01  2.1449779070536866e+01  2.1837581278621563e+01  2.0051801314533108e+01  2.0588623443958753e+01  2.0032216080300167e+01  2.0031209629942698e+01  2.0961895490456023e+01  2.0340207241955497e+01  2.2299058110504401e+01  2.0041643138555678e+01  2.2225725844965819e+01  2.2318127061317110e+01  2.0012384204826816e+01  2.0009735403605863e+01  2.2455183227419155e+01  2.2501925631570078e+01  2.1235664675204870e+01  2.0312074581675830e+01  2.0148911643535055e+01  2.0110923834070874e+01  2.0329830534415269e+01  2.0266191401787765e+01  2.0146101107429683e+01  2.0007179867409292e+01  2.0154029042931473e+01  2.0393617445428589e+01  2.1441837103914349e+01  2.1359756178960421e+01  2.0094601925017631e+01  2.0115244215918310e+01  2.0131517459817609e+01  2.0312670795092856e+01  2.0086499374846777e+01  2.1366153394800172e+01  2.0970061918426417e+01  2.0768252282872567e+01  2.1078818424059456e+01  2.0983747020270673e+01  2.1650059627501779e+01  2.0005753889278939e+01  2.2738367081743764e+01  2.2711070874402871e+01  2.2703659097677658e+01  2.0008116396446717e+01  2.0006452513445179e+01  2.0029813422368054e+01  2.0701101561874626e+01  2.0044285592355727e+01  2.1087580625156750e+01  2.0064411687359467e+01  2.0031033783340547e+01  2.0026447588080597e+01  2.0680733843381081e+01  2.0632750584499281e+01  2.0661045833068979e+01  2.0126565017257985e+01  2.2748909360878663e+01  2.0600899848837557e+01  2.0026442223545178e+01  2.0015301329462002e+01  2.0613183800670981e+01  2.0209520466322950e+01  2.0540060109590883e+01  2.1588931397173333e+01  2.0920690826205067e+01  2.0022905729636463e+01  2.0976165693627820e+01  2.0114154181264190e+01  2.0049988722334280e+01  2.0054450460210802e+01  2.0036712275490849e+01  2.1997591166078486e+01  2.0202530239132219e+01  2.2493516190763405e+01  2.0040612117484976e+01  2.0712662817733467e+01  2.0052727953370479e+01  2.1053020534031411e+01  2.0627466483113210e+01  2.0006283764082948e+01  2.0241272068257850e+01  2.2422608527280282e+01  2.0059571666677954e+01  2.0024228919695453e+01  2.0125773976722336e+01  2.1417026719771645e+01  2.0611013272658976e+01  2.0093908076120567e+01  2.0254141713482785e+01  2.0182341303033954e+01  2.0168354982978347e+01  2.2019793881803775e+01  2.1241977068929973e+01  2.0512756981516848e+01  2.0191625440486366e+01  2.0062601648837557e+01  2.0124476532717445e+01  2.0189047400782727e+01  2.0180529308719422e+01  2.0717707188247878e+01  2.1008212833926240e+01  2.0586564745465818e+01  2.0024413779749025e+01  2.0960563473027214e+01  2.0043627289442369e+01  2.1639740320503059e+01  2.0848798646904040e+01  2.0892276481678586e+01  2.0854997183834367e+01  2.0978622458517517e+01  2.0094406622576216e+01  2.0392158029762943e+01  2.0096845559803675e+01  2.0091809288681070e+01  2.0077339173028793e+01  2.0233502426154391e+01  2.0012669007068393e+01  2.0038822275793706e+01  2.0278405758868157e+01  2.2495165500803857e+01  2.2578519958388718e+01  2.2211133974336853e+01  2.0224802348499395e+01  2.0650308491776570e+01  2.0594270825825426e+01  2.0088508375393541e+01  2.0119765453306215e+01  2.2067262576290396e+01  2.1230576431566995e+01  2.0014791187563684e+01  2.0863502667056594e+01  2.0989706546171856e+01  2.0066697553219242e+01  2.1965649984086554e+01  2.0147780025287954e+01  2.1100613464260952e+01  2.0119790234039197e+01  2.1196737612870137e+01  2.0342874362892896e+01  2.0363410198829978e+01  2.0143636001895889e+01  2.1559451924866320e+01  2.0204059952603824e+01  2.0084842476679974e+01  2.0163234309294008e+01  2.0151586925096023e+01  2.1364853834701105e+01  2.0189436492549998e+01  2.0244261484096789e+01  2.1200716032754936e+01  2.0293779798292938e+01  2.0101711353212380e+01  2.0944609476703146e+01  2.0005729492746269e+01  2.2747695045255433e+01  2.102