<?xml version="1.0"?>
<VTKFile type="UnstructuredGrid"  version="0.1"  >
<UnstructuredGrid>
<Piece  NumberOfPoints="2331" NumberOfCells="4248">
<Points>
<DataArray  type="Float64"  NumberOfComponents="3"  format="ascii">0 0.3 0  0 0 0  0.04999999999999999 0 0  0.0514582251803892 0.02410733605106462 0  0.0558116365147896 0.04786313285751154 0  0.06299675146291706 0.07092097740850717 0  0.07290879486935808 0.09294463440875382 0  0.08540322682126872 0.1136129493462312 0  0.1002978503657798 0.132624531648159 0  0.117375468351841 0.1497021496342203 0  0.1363870506537689 0.1645967731787313 0  0.1570553655912463 0.177091205130642 0  0.1790790225914929 0.187003248537083 0  0.2021368671424885 0.1941883634852104 0  0.2258926639489354 0.1985417748196108 0  0.25 0.2 0  0.2741073360510646 0.1985417748196108 0  0.2978631328575116 0.1941883634852104 0  0.3209209774085071 0.187003248537083 0  0.3429446344087537 0.177091205130642 0  0.3636129493462312 0.1645967731787313 0  0.3826245316481591 0.1497021496342202 0  0.3997021496342202 0.132624531648159 0  0.4145967731787313 0.1136129493462312 0  0.427091205130642 0.09294463440875371 0  0.4370032485370829 0.07092097740850713 0  0.4441883634852104 0.04786313285751155 0  0.4485417748196108 0.02410733605106461 0  0.45 0 0  0.55 0 0  0.5514582251803892 0.02410733605106462 0  0.5558116365147896 0.04786313285751154 0  0.5629967514629171 0.07092097740850717 0  0.5729087948693581 0.09294463440875382 0  0.5854032268212688 0.1136129493462312 0  0.6002978503657798 0.132624531648159 0  0.617375468351841 0.1497021496342203 0  0.6363870506537689 0.1645967731787313 0  0.6570553655912463 0.177091205130642 0  0.6790790225914929 0.187003248537083 0  0.7021368671424885 0.1941883634852104 0  0.7258926639489354 0.1985417748196108 0  0.75 0.2 0  0.7741073360510646 0.1985417748196108 0  0.7978631328575116 0.1941883634852104 0  0.8209209774085071 0.187003248537083 0  0.8429446344087537 0.177091205130642 0  0.8636129493462312 0.1645967731787313 0  0.8826245316481591 0.1497021496342202 0  0.8997021496342202 0.132624531648159 0  0.9145967731787312 0.1136129493462312 0  0.927091205130642 0.09294463440875371 0  0.9370032485370829 0.07092097740850713 0  0.9441883634852104 0.04786313285751155 0  0.9485417748196108 0.02410733605106461 0  0.95 0 0  1 0 0  1 0.3 0  0.9758926639489353 0.3014582251803892 0  0.9521368671424885 0.3058116365147896 0  0.9290790225914928 0.3129967514629171 0  0.9070553655912461 0.3229087948693581 0  0.8863870506537688 0.3354032268212687 0  0.867375468351841 0.3502978503657798 0  0.8502978503657798 0.367375468351841 0  0.8354032268212687 0.3863870506537689 0  0.822908794869358 0.4070553655912464 0  0.8129967514629171 0.4290790225914929 0  0.8058116365147896 0.4521368671424885 0  0.8014582251803892 0.4758926639489354 0  0.8 0.4999999999999999 0  0.8014582251803892 0.5241073360510646 0  0.8058116365147896 0.5478631328575115 0  0.8129967514629171 0.5709209774085071 0  0.8229087948693581 0.5929446344087538 0  0.8354032268212688 0.6136129493462312 0  0.8502978503657798 0.632624531648159 0  0.867375468351841 0.6497021496342202 0  0.8863870506537689 0.6645967731787313 0  0.9070553655912463 0.677091205130642 0  0.9290790225914929 0.6870032485370829 0  0.9521368671424885 0.6941883634852104 0  0.9758926639489354 0.6985417748196108 0  1 0.7 0  1 1 0  0.95 1 0  0.9485417748196108 0.9758926639489353 0  0.9441883634852104 0.9521368671424885 0  0.9370032485370829 0.9290790225914928 0  0.927091205130642 0.9070553655912463 0  0.9145967731787312 0.8863870506537688 0  0.8997021496342201 0.8673754683518409 0  0.882624531648159 0.8502978503657798 0  0.863612949346231 0.8354032268212686 0  0.8429446344087537 0.822908794869358 0  0.8209209774085071 0.8129967514629171 0  0.7978631328575114 0.8058116365147896 0  0.7741073360510646 0.8014582251803892 0  0.75 0.8 0  0.7258926639489353 0.8014582251803892 0  0.7021368671424885 0.8058116365147896 0  0.6790790225914928 0.8129967514629171 0  0.6570553655912461 0.8229087948693581 0  0.6363870506537688 0.8354032268212688 0  0.617375468351841 0.8502978503657798 0  0.6002978503657798 0.867375468351841 0  0.5854032268212687 0.8863870506537689 0  0.572908794869358 0.9070553655912463 0  0.5629967514629171 0.9290790225914929 0  0.5558116365147896 0.9521368671424885 0  0.5514582251803892 0.9758926639489355 0  0.55 0.9999999999999999 0  0.45 0.9999999999999999 0  0.4485417748196108 0.9758926639489353 0  0.4441883634852104 0.9521368671424885 0  0.4370032485370829 0.9290790225914928 0  0.427091205130642 0.9070553655912463 0  0.4145967731787313 0.8863870506537688 0  0.3997021496342201 0.8673754683518409 0  0.382624531648159 0.8502978503657798 0  0.363612949346231 0.8354032268212686 0  0.3429446344087536 0.822908794869358 0  0.3209209774085071 0.8129967514629171 0  0.2978631328575115 0.8058116365147896 0  0.2741073360510646 0.8014582251803892 0  0.25 0.8 0  0.2258926639489353 0.8014582251803892 0  0.2021368671424885 0.8058116365147896 0  0.1790790225914928 0.8129967514629171 0  0.1570553655912462 0.8229087948693581 0  0.1363870506537688 0.8354032268212688 0  0.117375468351841 0.8502978503657798 0  0.1002978503657797 0.867375468351841 0  0.08540322682126869 0.8863870506537689 0  0.07290879486935797 0.9070553655912463 0  0.06299675146291703 0.9290790225914929 0  0.05581163651478957 0.9521368671424885 0  0.0514582251803892 0.9758926639489355 0  0.04999999999999999 0.9999999999999999 0  0 1 0  -0 0.7000000000000001 0  0.0241073360510646 0.6985417748196108 0  0.04786313285751161 0.6941883634852104 0  0.07092097740850711 0.6870032485370829 0  0.09294463440875372 0.677091205130642 0  0.1136129493462312 0.6645967731787312 0  0.1326245316481591 0.6497021496342202 0  0.1497021496342202 0.632624531648159 0  0.1645967731787313 0.6136129493462312 0  0.177091205130642 0.5929446344087537 0  0.187003248537083 0.5709209774085071 0  0.1941883634852104 0.5478631328575115 0  0.1985417748196108 0.5241073360510646 0  0.2 0.5 0  0.1985417748196108 0.4758926639489353 0  0.1941883634852104 0.4521368671424885 0  0.1870032485370829 0.4290790225914928 0  0.177091205130642 0.4070553655912463 0  0.1645967731787313 0.3863870506537688 0  0.1497021496342202 0.3673754683518409 0  0.132624531648159 0.3502978503657798 0  0.113612949346231 0.3354032268212686 0  0.09294463440875361 0.322908794869358 0  0.07092097740850711 0.3129967514629171 0  0.04786313285751148 0.3058116365147896 0  0.02410733605106464 0.3014582251803892 0  0.6985417748196108 0.5241073360510646 0  0.7 0.5 0  0.6985417748196108 0.4758926639489353 0  0.6941883634852104 0.4521368671424885 0  0.6870032485370829 0.4290790225914928 0  0.677091205130642 0.4070553655912463 0  0.6645967731787312 0.3863870506537688 0  0.6497021496342201 0.3673754683518409 0  0.632624531648159 0.3502978503657798 0  0.613612949346231 0.3354032268212686 0  0.5929446344087537 0.322908794869358 0  0.5709209774085071 0.3129967514629171 0  0.5478631328575114 0.3058116365147896 0  0.5241073360510646 0.3014582251803892 0  0.4999999999999999 0.3 0  0.4758926639489353 0.3014582251803892 0  0.4521368671424885 0.3058116365147896 0  0.4290790225914928 0.3129967514629171 0  0.4070553655912462 0.3229087948693581 0  0.3863870506537688 0.3354032268212687 0  0.367375468351841 0.3502978503657798 0  0.3502978503657798 0.367375468351841 0  0.3354032268212687 0.3863870506537689 0  0.322908794869358 0.4070553655912464 0  0.3129967514629171 0.4290790225914929 0  0.3058116365147896 0.4521368671424885 0  0.3014582251803892 0.4758926639489354 0  0.3 0.4999999999999999 0  0.3014582251803892 0.5241073360510646 0  0.3058116365147896 0.5478631328575115 0  0.3129967514629171 0.5709209774085071 0  0.3229087948693581 0.5929446344087538 0  0.3354032268212687 0.6136129493462312 0  0.3502978503657798 0.632624531648159 0  0.367375468351841 0.6497021496342202 0  0.3863870506537689 0.6645967731787313 0  0.4070553655912463 0.677091205130642 0  0.4290790225914929 0.6870032485370829 0  0.4521368671424885 0.6941883634852104 0  0.4758926639489354 0.6985417748196108 0  0.4999999999999999 0.7 0  0.5241073360510646 0.6985417748196108 0  0.5478631328575116 0.6941883634852104 0  0.5709209774085071 0.6870032485370829 0  0.5929446344087537 0.677091205130642 0  0.6136129493462312 0.6645967731787312 0  0.6326245316481591 0.6497021496342202 0  0.6497021496342202 0.632624531648159 0  0.6645967731787312 0.6136129493462312 0  0.677091205130642 0.5929446344087537 0  0.6870032485370829 0.5709209774085071 0  0.6941883634852104 0.5478631328575115 0  0 0.15 0  1 0.15 0  1 0.85 0  0 0.8500000000000001 0  0 0.075 0  1 0.075 0  1 0.925 0  0 0.925 0  0.5 0.8127595604293815 0  0.5069440078039168 0.190422209288238 0  0.25 0.3127595604293815 0  0.756944007803917 0.3095777907117619 0  0.756944007803917 0.6904222092882382 0  0.25 0.6872404395706185 0  0 0.225 0  0.4255768646051012 0.2241073097134061 0  1 0.7749999999999999 0  0.6773391559270888 0.2766774022734219 0  1 0.225 0  0.6755768646051011 0.7241073097134062 0  0 0.7750000000000001 0  0.5818971135297744 0.2287925518358889 0  0.8318971135297746 0.728792551835889 0  0.1659156081861886 0.7301636995921477 0  0.08376842746533225 0.2299656297760495 0  0.4236002201977974 0.7746535834185855 0  0.0840843918138115 0.7698363004078523 0  0.3340843918138113 0.7301636995921477 0  0.3340843918138114 0.2698363004078523 0  0.9159156081861887 0.2301636995921477 0  0.5840843918138116 0.7698363004078522 0  0.1659156081861887 0.2698363004078523 0  0.9162315725346678 0.7700343702239506 0  0.8340843918138114 0.2698363004078523 0  0.75 0.6146645247768686 0  0.5 0.1125158665330878 0  0.75 0.3874841334669124 0  0.2504983345544904 0.6122915843562002 0  0.2504983345544902 0.3877084156437999 0  0.5 0.8879783056303169 0  0.7005361650220154 0.3333055947145943 0  0.70416808765371 0.6599554817221275 0  0.449930214263529 0.1678187287522426 0  0.2247310981387008 0.7415600637745463 0  0.5155081196221678 0.7563797802146907 0  0.2752689018612993 0.2584399362254537 0  0.05605196690611226 0.8246131191226815 0  0.9439480330938878 0.1
[...]
<PointData  Scalars="Temperature"> 
<DataArray  type="Float64"  Name="Temperature"  format="ascii">2.1944023174898696e+01  2.2266856562111464e+01  2.2261328797218852e+01  2.2256848859006691e+01  2.2243638150322671e+01  2.2221643681033939e+01  2.2190492651087002e+01  2.2148921744301408e+01  2.2097746020385372e+01  2.2036802149990848e+01  2.1965502040362562e+01  2.1884950030494494e+01  2.1797092650634330e+01  2.1703421943007907e+01  2.1604979046500578e+01  2.1504905162268741e+01  2.1404975248545551e+01  2.1306494634170619e+01  2.1213707205605342e+01  2.1126011948056288e+01  2.1046889528587915e+01  2.0977166860950927e+01  2.0914160487233623e+01  2.0862015017795557e+01  2.0818612796003872e+01  2.0787044279969173e+01  2.0762377574562414e+01  2.0748490589885439e+01  2.0743357258711885e+01  2.0570711519035427e+01  2.0565500054160232e+01  2.0549433007674715e+01  2.0522760787108449e+01  2.0489069565771938e+01  2.0448074289021680e+01  2.0402714216531461e+01  2.0357095176506085e+01  2.0310739930562786e+01  2.0266217240394241e+01  2.0224949861371012e+01  2.0187701907344945e+01  2.0155065553477723e+01  2.0127266217827575e+01  2.0103958171089801e+01  2.0084645360486039e+01  2.0069150941673044e+01  2.0056663711379667e+01  2.0046914400919693e+01  2.0039231271391714e+01  2.0033355390585644e+01  2.0028929413604899e+01  2.0025711343677138e+01  2.0023512837548132e+01  2.0022043209668063e+01  2.0021225394203814e+01  2.0020969254436231e+01  2.0019138801160622e+01  2.0017624885627669e+01  2.0019272572397835e+01  2.0023363988715737e+01  2.0028973266376816e+01  2.0035497169073626e+01  2.0042621315460817e+01  2.0049683523714702e+01  2.0056661270840660e+01  2.0062705574722902e+01  2.0067826321574969e+01  2.0070846204450799e+01  2.0072243542390531e+01  2.0071362754747266e+01  2.0068390670983145e+01  2.0064365873905892e+01  2.0058601996924761e+01  2.0051963854571561e+01  2.0045144060580185e+01  2.0038299719808716e+01  2.0031695180844125e+01  2.0025887689690393e+01  2.0020635844182564e+01  2.0016267542301076e+01  2.0012658396444930e+01  2.0009851520514903e+01  2.0007933511055441e+01  2.0007151627303532e+01  2.0002894286218460e+01  2.0003158371929075e+01  2.0003328791097125e+01  2.0003768184564287e+01  2.0004439401337113e+01  2.0005348562377140e+01  2.0006617231873054e+01  2.0008333700983098e+01  2.0010562302141977e+01  2.0013440838154679e+01  2.0017144506620074e+01  2.0021824325965220e+01  2.0027526866781937e+01  2.0034365578851858e+01  2.0042155611667624e+01  2.0050991959909894e+01  2.0060268065704673e+01  2.0070069996265843e+01  2.0079059117672447e+01  2.0087291584224815e+01  2.0093858505329528e+01  2.0098588920294546e+01  2.0100411470730901e+01  2.0100219293221855e+01  2.0097534264261292e+01  2.0092939572136743e+01  2.0088579563611070e+01  2.0086519767338348e+01  2.0111834094541365e+01  2.0117396366917834e+01  2.0130176154472682e+01  2.0148006811224175e+01  2.0169770901278678e+01  2.0195981722363886e+01  2.0226182692791021e+01  2.0260555691506845e+01  2.0298152000240069e+01  2.0338970519816666e+01  2.0381035779894759e+01  2.0423234444700650e+01  2.0463211584821494e+01  2.0499059680530632e+01  2.0528860074985886e+01  2.0550190443015641e+01  2.0561939639844780e+01  2.0564116458217192e+01  2.0555724467325362e+01  2.0539627368583186e+01  2.0515697970525672e+01  2.0485741463152973e+01  2.0451846984972832e+01  2.0416253427391961e+01  2.0381450240951068e+01  2.0353422091352304e+01  2.0340150082818273e+01  2.0341514800717857e+01  2.0796669711744610e+01  2.0797072859464649e+01  2.0799876125730844e+01  2.0804815089715593e+01  2.0812094344851253e+01  2.0822022645212304e+01  2.0835116370760982e+01  2.0853220508531223e+01  2.0875582884370409e+01  2.0901423058115864e+01  2.0935019161934367e+01  2.0974537990625272e+01  2.1022067041760963e+01  2.1076521306417217e+01  2.1138435966813770e+01  2.1207953429472422e+01  2.1284384484679499e+01  2.1366834452746030e+01  2.1453973032714892e+01  2.1543185187056274e+01  2.1631212176152633e+01  2.1714623869262336e+01  2.1790582758926995e+01  2.1854815180541280e+01  2.1903102929850732e+01  2.1933743368881938e+01  2.0097563058784090e+01  2.0101921867951319e+01  2.0108876923947559e+01  2.0118479510649593e+01  2.0131370845265746e+01  2.0147978266547906e+01  2.0168954671601746e+01  2.0195172980575528e+01  2.0227471036169881e+01  2.0265680007043262e+01  2.0311260759149562e+01  2.0364420180199797e+01  2.0424785773773234e+01  2.0492218577733269e+01  2.0565271915197748e+01  2.0642090575222575e+01  2.0719783105497530e+01  2.0796773513732003e+01  2.0866546100138219e+01  2.0930433091988682e+01  2.0982152852677579e+01  2.1021382564506595e+01  2.1043751202540754e+01  2.1053564355692441e+01  2.1044861033681865e+01  2.1023930964944206e+01  2.0988500909607385e+01  2.0942750217211916e+01  2.0888917684734263e+01  2.0828100292609669e+01  2.0764914759274770e+01  2.0698352891612114e+01  2.0632707841920254e+01  2.0568372238424043e+01  2.0506798361731853e+01  2.0449273643713973e+01  2.0395599351393869e+01  2.0347293823958275e+01  2.0303664624900811e+01  2.0265297237441754e+01  2.0231719049191788e+01  2.0202726743987913e+01  2.0177939804630327e+01  2.0157445576816688e+01  2.0140458550479071e+01  2.0126584644989517e+01  2.0115525535469413e+01  2.0107081833210856e+01  2.0100936997976717e+01  2.0097124794873576e+01  2.0095126500647247e+01  2.0095390808091544e+01  2.2163552394335479e+01  2.0019114090337212e+01  2.0004744044349131e+01  2.0537067106793291e+01  2.2239897477933649e+01  2.0019329794610545e+01  2.0003573009218833e+01  2.0413782524975399e+01  2.0176375780038768e+01  2.0590663543442517e+01  2.1367104629214865e+01  2.0109916298599511e+01  2.0051497289354309e+01  2.0648476495090360e+01  2.2046491364248286e+01  2.0835612487851648e+01  2.0006074699700317e+01  2.0200890705229924e+01  2.0018176547999861e+01  2.0083215342936988e+01  2.0683096118060433e+01  2.0382281949174665e+01  2.0025676107356318e+01  2.0682818699518897e+01  2.1967459057848647e+01  2.0281981870128494e+01  2.0670998841161015e+01  2.0450923109799355e+01  2.1127119801194759e+01  2.0032158422160542e+01  2.0128513666920753e+01  2.1707959651290285e+01  2.0010955306290725e+01  2.0062739353943662e+01  2.0065794610597081e+01  2.0640149358673177e+01  2.0103682346575781e+01  2.0785790193449181e+01  2.1230844561613928e+01  2.0136834747273685e+01  2.0159205458331641e+01  2.0080880280143393e+01  2.0782480940357644e+01  2.0591558528675872e+01  2.0193537242990285e+01  2.1360046396487167e+01  2.0576665787455891e+01  2.0025919533971521e+01  2.2096516470418834e+01  2.0006769715489604e+01  2.0630615166093420e+01  2.0053822478615349e+01  2.0137808768976985e+01  2.0216701874483579e+01  2.0757311435443778e+01  2.1531559423172393e+01  2.0569153473402643e+01  2.1149208054007612e+01  2.0125556301432511e+01  2.0651304846152396e+01  2.0094097340622778e+01  2.0076765005990982e+01  2.1123526012402440e+01  2.0917236520228904e+01  2.0098568459962127e+01  2.0112269226121182e+01  2.1543272491764668e+01  2.0527359248549157e+01  2.0448309122408222e+01  2.0043876508274352e+01  2.0070453831867404e+01  2.0269095313781357e+01  2.0924216101062861e+01  2.1066369295083383e+01  2.0092188925787447e+01  2.0123259522844307e+01  2.0277456268199771e+01  2.0037760670604392e+01  2.0093762093084592e+01  2.0085333711300510e+01  2.0655074685553767e+01  2.1021806131195795e+01  2.0351939801932726e+01  2.0380389279613116e+01  2.0499716431510770e+01  2.0017365873252821e+01  2.0016647860989085e+01  2.0228079528674126e+01  2.1853553338064387e+01  2.0736076819739981e+01  2.0036153998758952e+01  2.0628571719244288e+01  2.1833761621955730e+01  2.0739498379033396e+01  2.0021634739778122e+01  2.0050786445080597e+01  2.0008422317928559e+01  2.1967978686109856e+01  2.0023316869799888e+01  2.0005254383559894e+01  2.2176453109105086e+01  2.0501699518787817e+01  2.0078578399816450e+01  2.0035992190511632e+01  2.0514777484222634e+01  2.0068008850917202e+01  2.0104221917985264e+01  2.0479231254213580e+01  2.1676372210028244e+01  2.0036731645068080e+01  2.1025314641885839e+01  2.0777181545625652e+01  2.0586966948473101e+01  2.2012840849878206e+01  2.0011180649565169e+01  2.0818596854625977e+01  2.1393151260564952e+01  2.0138748888134735e+01  2.0025945328543603e+01  2.1227117120656494e+01  2.0674804125794530e+01  2.0185736217684791e+01  2.0220232133301579e+01  2.0279387611024173e+01  2.0743931012405696e+01  2.0106660828553011e+01  2.0949290156448260e+01  2.0070303514121235e+01  2.0175623509832217e+01  2.0282852038009672e+01  2.0388335367892758e+01  2.0150903257374047e+01  2.0027411218873876e+01  2.0329108561211868e+01  2.0595357962429521e+01  2.1221405502083961e+01  2.0443771774354847e+01  2.1689634798551872e+01  2.0052001341747673e+01  2.0154611922301044e+01  2.0704123606039410e+01  2.2045975547423545e+01  2.0070932856941710e+01  2.0023560586292533e+01  2.0654962574160383e+01  2.0157906750384583e+01  2.0607749764765916e+01  2.0018696714198828e+01  2.0082091452901590e+01  2.0007329649902594e+01  2.0767400123348597e+01  2.0118771600091648e+01  2.0140193395459608e+01  2.0661601733597585e+01  2.2109799763038527e+01  2.0061240959355597e+01  2.0084991471340512e+01  2.0057748710062782e+01  2.0891219548414266e+01  2.1288455530634351e+01  2.0678764607871159e+01  2.1110431230059923e+01  2.0761285524833788e+01  2.0723240747334508e+01  2.0574499787296485e+01  2.0082872536790241e+01  2.0119584124066101e+01  2.0112386393517223e+01  2.0110006073263754e+01  2.0146203205526071e+01  2.0005406788662068e+01  2.0756352847282333e+01  2.0004155504892328e+01  2.0017580426293225e+01  2.1981180968876462e+01  2.0019187440744577e+01  2.2260063549423105e+01  2.0019317953338614e+01  2.0021633437279274e+01  2.2207270788233799e+01  2.0003106591053033e+01  2.0364850291935578e+01  2.0006763970848485e+01  2.0472365615029773e+01  2.0443291811745084e+01  2.1110338327859747e+01  2.0807486509731692e+01  2.0668243866487281e+01  2.1229611147386080e+01  2.0177644875558485e+01  2.0011922312193732e+01  2.0503653121906773e+01  2.1536909921943447e+01  2.0040994648565938e+01  2.0049430483371093e+01  2.0238539103869211e+01  2.0007098871271118e+01  2.0159565096186252e+01  2.0532041654884228e+01  2.0731631098425883e+01  2.1348458549439922e+01  2.1820419549983505e+01  2.0328230657025884e+01  2.0536832386897700e+01  2.0108986108037751e+01  2.0094304957343304e+01  2.0185664283120413e+01  2.0086670185883822e+01  2.0100711770175781e+01  2.0004250624139026e+01  2.2217724554047667e+01  2.1928079913967476e+01  2.0033150047434955e+01  2.0575694957347949e+01  2.1496235846173697e+01  2.0047841183483289e+01  2.0451682369028639e+01  2.0077676703141361e+01  2.0028288937499102e+01  2.0171159560921737e+01  2.0951703276089837e+01  2.0102803829326106e+01  2.0322515469911114e+01  2.2247575205257764e+01  2.0020766491501647e+01  2.0003538717516612e+01  2.0388185366871831e+01  2.0320914351612743e+01  2.0086161660065866e+01  2.0728150739319979e+01  2.0525095936224357e+01  2.0570146021176850e+01  2.0028942258969327e+01  2.0020657815981650e+01  2.0384283895450881e+01  2.2081110451974457e+01  2.2035893780131779e+01  2.2131032930739021e+01  2.0892522049968441e+01  2.0807232493633361e+01  2.1901146443283398e+01  2.0209521046349508e+01  2.0790303732170205e+01  2.0583768596500274e+01  2.0047374345688961e+01  2.0183439212758209e+01  2.0113055824072799e+01  2.1054543508380338e+01  2.0125323497086601e+01  2.0005746722021190e+01  2.0094521932440987e+01  2.0065202733849809e+01  2.0377443611434636e+01  2.0096533939852613e+01  2.0056866632892923e+01  2.0700061850179267e+01  2.0609105653176531e+01  2.0079889779316744e+01  2.0105924324871022e+01  2.1032277492092014e+01  2.1149213290482436e+01  2.0167434622174685e+01  2.0019704521390391e+01  2.0117978237946048e+01  2.0249640815482071e+01  2.1247879466021626e+01  2.0422906070599563e+01  2.1604392304161919e+01  2.0515363956737701e+01  2.0538190742477216e+01  2.0649790112336554e+01  2.1346752214592794e+01  2.1418544137543257e+01  2.0604886147015854e+01  2.0125427263338640e+01  2.0108903874567087e+01  2.1255407396054391e+01  2.0723967852932162e+01  2.1078456064254844e+01  2.1579787159853744e+01  2.0543446559371247e+01  2.0826921922375487e+01  2.0148552230142709e+01  2.0089903115261880e+01  2.0072221439187519e+01  2.0940784689006428e+01  2.1003493939706733e+01  2.1766824924992669e+01  2.0067027155324723e+01  2.0056181339694557e+01  2.0054251357749017e+01  2.0818187875218545e+01  2.0076801835586842e+01  2.0187024047683209e+01  2.0848684292745556e+01  2.0208724103650471e+01  2.0243853635981655e+01  2.0134978658102487e+01  2.0611107729619903e+01  2.0614149891534232e+01  2.0153044547071271e+01  2.0222894222766183e+01  2.0008508445459736e+01  2.1926184332773332e+01  2.0064735910645759e+01  2.0441360798429738e+01  2.0019214852120729e+01  2.0014702372142729e+01  2.0087960726987340e+01  2.0065563894679652e+01  2.0060129157957466e+01  2.0589574575598800e+01  2.0930442379010621e+01  2.1019453546854336e+01  2.0089380415613597e+01  2.0105716015815631e+01  2.0351758783428469e+01  2.0388665327270850e+01  2.0590645954766540e+01  2.0323298385581964e+01  2.0040555692545098e+01  2.0073343158535014e+01  2.0029759265198390e+01  2.0617091990738817e+01  2.0458284099381910e+01  2.0003016702215810e+01  2.0020001106463482e+01  2.2264549398579653e+01  2.0340742609529933e+01  2.0676983711439945e+01  2.0331657134018712e+01  2.1055917699865926e+01  2.0244922111953809e+01  2.0085254798603600e+01  2.0044588387805565e+01  2.0580767457179466e+01  2.0725417102150626e+01  2.1182946589026500e+01  2.0088368426187593e+01  2.0021584002373224e+01  2.0018889928243080e+01  2.0014374826733722e+01  2.0022321584574414e+01  2.0144341335162331e+01  2.1159636265041634e+01  2.0876542195301926e+01  2.0102269090515318e+01  2.0090076505726877e+01  2.0124709667302206e+01  2.0111293258438348e+01  2.0064109367573248e+01  2.0961003366391019e+01  2.0856527064508377e+01  2.1748241103897893e+01  2.1122854426880178e+01  2.0324601309727420e+01  2.1895733526761109e+01  2.0707001520128131e+01  2.0402018053378114e+01  2.0099789785451279e+01  2.2017410842304116e+01  2.0844699227065377e+01  2.0040444359665734e+01  2.0047084832136729e+01  2.0008496681839919e+01  2.0626114161527322e+01  2.1638635423030436e+01  2.0486943009201834e+01  2.0638425223321512e+01  2.0684030412148665e+01  2.0668569297839557e+01  2.1086686703216991e+01  2.0099303619990032e+01  2.2132465907311701e+01  2.0013210259667449e+01  2.1208462049646705e+01  2.0262592603627493e+01  2.0643706316167297e+01  2.0020393892446201e+01  2.0054053501551046e+01  2.0203593741445243e+01  2.1032721475160507e+01  2.0102563002713527e+01  2.1488178450762746e+01  2.0079827170429184e+01  2.0006783328909957e+01  2.0783536329013081e+01  2.0241178666284682e+01  2.1060038322717237e+01  2.0039155534318944e+01  2.0646608591975767e+01  2.0020318529189666e+01  2.0357286755553098e+01  2.2259552596260271e+01  2.0003192702480021e+01  2.0551097995900076e+01  2.0099586891199152e+01  2.0015116049814399e+01  2.0058582957699716e+01  2.0734564414289874e+01  2.0208552788511717e+01  2.0026732664160516e+01  2.0131923222831034e+01  2.1944457039839875e+01  2.0799613231228001e+01  2.0716089581777034e+01  2.0604140321931354e+01  2.0077539562538604e+01  2.0368529206209082e+01  2.0430585486793436e+01  2.0780526878680856e+01  2.0021378934000971e+01  2.0694326163958578e+01  2.0074643840897867e+01  2.0522034799781864e+01  2.1436091348870111e+01  2.0741104209743501e+01  2.0032713452845428e+01  2.1444216416630656e+01  2.0214799163789618e+01  2.0030369476654922e+01  2.0045097925363486e+01  2.0044916964631788e+01  2.0130398839188040e+01  2.0134033985283072e+01  2.0008909844128432e+01  2.0564281673493156e+01  2.1634631324366730e+01  2.0452015123774398e+01  2.0158884297587630e+01  2.0092233246823529e+01  2.0745469684723275e+01  2.0619476340407822e+01  2.0006046200684082e+01  2.1314548794625853e+01  2.0616732138291294e+01  2.0598442828005521e+01  2.0107405758844610e+01  2.0714041067776357e+01  2.0504311047447377e+01  2.1747345854461621e+01  2.0034694943188970e+01  2.0560953299608038e+01  2.0717693143769299e+01  2.0025852451153966e+01  2.0017927734128126e+01  2.0019854588293608e+01  2.0009434430505515e+01  2.2091143139892555e+01  2.0289220059823080e+01  2.1373050689368892e+01  2.0120183029381842e+01  2.0564073246369457e+01  2.0437122606789753e+01  2.0280859830520900e+01  2.0681874852488463e+01  2.1153089599451278e+01  2.1467397131775037e+01  2.0040480164684496e+01  2.0467108109140952e+01  2.0025830316580887e+01  2.0024599370150948e+01  2.0768875024130523e+01  2.0271773524999830e+01  2.1832883662479240e+01  2.0032539811914191e+01  2.1777001584996704e+01  2.1850855634153003e+01  2.0009698640342773e+01  2.0007556122588817e+01  2.1956777435207780e+01  2.1997170440904693e+01  2.0985382240633495e+01  2.0248280571671103e+01  2.0119852965849073e+01  2.0087549106344838e+01  2.0262633269451282e+01  2.0212013311640021e+01  2.0115833707977057e+01  2.0005558789034065e+01  2.0121749137020938e+01  2.0313046384921051e+01  2.1146567836638415e+01  2.1084426780312683e+01  2.0074510610577626e+01  2.0091857501351356e+01  2.0103157525329483e+01  2.0249208382303685e+01  2.0068797449833657e+01  2.1082677870463527e+01  2.0779554806903175e+01  2.0612543684033263e+01  2.0866054690557490e+01  2.0785804923029009e+01  2.1316754621462948e+01  2.0004440028944668e+01  2.2186748108533820e+01  2.2164905899181456e+01  2.2157575718191008e+01  2.0006440606088635e+01  2.0005115168950432e+01  2.0023366979737876e+01  2.0555339830300017e+01  2.0034986927537663e+01  2.0867820807360115e+01  2.0050394379556288e+01  2.0024532939829950e+01  2.0020636666818461e+01  2.0541821257157505e+01  2.0503962856370197e+01  2.0526486676127224e+01  2.0099235203150808e+01  2.2193681971063015e+01  2.0478096023747870e+01  2.0020738606097829e+01  2.0012041885850632e+01  2.0486154287959675e+01  2.0167208824953519e+01  2.0429382305366907e+01  2.1266926720053295e+01  2.0734263641833817e+01  2.0017536415428808e+01  2.0784314679656102e+01  2.0092201134318550e+01  2.0039443542872615e+01  2.0043052093853099e+01  2.0028959302322153e+01  2.1595335569176438e+01  2.0160906548139806e+01  2.1990259787683076e+01  2.0031994539046355e+01  2.0564570816544489e+01  2.0042249463226796e+01  2.0842009077475570e+01  2.0498651816641914e+01  2.0004876923464501e+01  2.0192018050740177e+01  2.1930781058264206e+01  2.0046820727323034e+01  2.0019061175487987e+01  2.0099886633303676e+01  2.1131761968669739e+01  2.0485512409981748e+01  2.0073674120248576e+01  2.0202152645870701e+01  2.0144884630987594e+01  2.0135437108516058e+01  2.1612202691356284e+01  2.0986439190963967e+01  2.0406510558703594e+01  2.0153896665856553e+01  2.0048886479751566e+01  2.0098570101948791e+01  2.0150764916188088e+01  2.0143316221837406e+01  2.0568305303884728e+01  2.0809841188735557e+01  2.0466924591961799e+01  2.0018821048804032e+01  2.0770836200141780e+01  2.0034369037153670e+01  2.1307844354455504e+01  2.0676777300764190e+01  2.0713677477025357e+01  2.0682197347972785e+01  2.0782984925090418e+01  2.0075221165171520e+01  2.0312949906791481e+01  2.0077071813704936e+01  2.0072818704258001e+01  2.0061228443720676e+01  2.0186120745541285e+01  2.0009988411166031e+01  2.0030838764523690e+01  2.0221383053172460e+01  2.1992233485779245e+01  2.2058696229984008e+01  2.1765609194731486e+01  2.0177947117627006e+01  2.0517818226131638e+01  2.0473232692223565e+01  2.0069232819316809e+01  2.0093896541063430e+01  2.1649586073923995e+01  2.0974247638345847e+01  2.0011725209478129e+01  2.0686359516698424e+01  2.0787663443910965e+01  2.0052628749518952e+01  2.1569112124936805e+01  2.0119041921322712e+01  2.0878736556294580e+01  2.0095486192972530e+01  2.0960317478948873e+01  2.0272787582194994e+01  2.0288827747846859e+01  2.0113463282252379e+01  2.1248710319617221e+01  2.0163873579131124e+01  2.0066584549196495e+01  2.0129899839557240e+01  2.0120883366450794e+01  2.1085010344854396e+01  2.0150768207367129e+01  2.0193715552640029e+01  2.0957207484079984e+01  2.0234768731345866e+01  2.0080899009241527e+01  2.0749000180912294e+01  2.0004464269890327e+01  2.2193927463831706e+01  2.082