<?xml version="1.0"?>
<VTKFile type="UnstructuredGrid"  version="0.1"  >
<UnstructuredGrid>
<Piece  NumberOfPoints="9347" NumberOfCells="18364">
<Points>
<DataArray  type="Float64"  NumberOfComponents="3"  format="ascii">0 0 0  0.015625 0 0  0.03125 0 0  0.046875 0 0  0.0625 0 0  0.078125 0 0  0.09375 0 0  0.109375 0 0  0.125 0 0  0.140625 0 0  0.15625 0 0  0.171875 0 0  0.1875 0 0  0.203125 0 0  0.21875 0 0  0.234375 0 0  0.25 0 0  0.265625 0 0  0.28125 0 0  0.296875 0 0  0.3125 0 0  0.328125 0 0  0.34375 0 0  0.359375 0 0  0.375 0 0  0.390625 0 0  0.40625 0 0  0.421875 0 0  0.4375 0 0  0.453125 0 0  0.46875 0 0  0.484375 0 0  0.5 0 0  0.515625 0 0  0.53125 0 0  0.546875 0 0  0.5625 0 0  0.578125 0 0  0.59375 0 0  0.609375 0 0  0.625 0 0  0.640625 0 0  0.65625 0 0  0.671875 0 0  0.6875 0 0  0.703125 0 0  0.71875 0 0  0.734375 0 0  0.75 0 0  0.765625 0 0  0.78125 0 0  0.796875 0 0  0.8125 0 0  0.828125 0 0  0.84375 0 0  0.859375 0 0  0.875 0 0  0.890625 0 0  0.90625 0 0  0.921875 0 0  0.9375 0 0  0.953125 0 0  0.96875 0 0  0.984375 0 0  1 0 0  0 0.015625 0  0.015625 0.015625 0  0.03125 0.015625 0  0.046875 0.015625 0  0.0625 0.015625 0  0.078125 0.015625 0  0.09375 0.015625 0  0.109375 0.015625 0  0.125 0.015625 0  0.140625 0.015625 0  0.15625 0.015625 0  0.171875 0.015625 0  0.1875 0.015625 0  0.203125 0.015625 0  0.21875 0.015625 0  0.234375 0.015625 0  0.25 0.015625 0  0.265625 0.015625 0  0.28125 0.015625 0  0.296875 0.015625 0  0.3125 0.015625 0  0.328125 0.015625 0  0.34375 0.015625 0  0.359375 0.015625 0  0.375 0.015625 0  0.390625 0.015625 0  0.40625 0.015625 0  0.421875 0.015625 0  0.4375 0.015625 0  0.453125 0.015625 0  0.46875 0.015625 0  0.484375 0.015625 0  0.5 0.015625 0  0.515625 0.015625 0  0.53125 0.015625 0  0.546875 0.015625 0  0.5625 0.015625 0  0.578125 0.015625 0  0.59375 0.015625 0  0.609375 0.015625 0  0.625 0.015625 0  0.640625 0.015625 0  0.65625 0.015625 0  0.671875 0.015625 0  0.6875 0.015625 0  0.703125 0.015625 0  0.71875 0.015625 0  0.734375 0.015625 0  0.75 0.015625 0  0.765625 0.015625 0  0.78125 0.015625 0  0.796875 0.015625 0  0.8125 0.015625 0  0.828125 0.015625 0  0.84375 0.015625 0  0.859375 0.015625 0  0.875 0.015625 0  0.890625 0.015625 0  0.90625 0.015625 0  0.921875 0.015625 0  0.9375 0.015625 0  0.953125 0.015625 0  0.96875 0.015625 0  0.984375 0.015625 0  1 0.015625 0  0 0.03125 0  0.015625 0.03125 0  0.03125 0.03125 0  0.046875 0.03125 0  0.0625 0.03125 0  0.078125 0.03125 0  0.09375 0.03125 0  0.109375 0.03125 0  0.125 0.03125 0  0.140625 0.03125 0  0.15625 0.03125 0  0.171875 0.03125 0  0.1875 0.03125 0  0.203125 0.03125 0  0.21875 0.03125 0  0.234375 0.03125 0  0.25 0.03125 0  0.265625 0.03125 0  0.28125 0.03125 0  0.296875 0.03125 0  0.3125 0.03125 0  0.328125 0.03125 0  0.34375 0.03125 0  0.359375 0.03125 0  0.375 0.03125 0  0.390625 0.03125 0  0.40625 0.03125 0  0.421875 0.03125 0  0.4375 0.03125 0  0.453125 0.03125 0  0.46875 0.03125 0  0.484375 0.03125 0  0.5 0.03125 0  0.515625 0.03125 0  0.53125 0.03125 0  0.546875 0.03125 0  0.5625 0.03125 0  0.578125 0.03125 0  0.59375 0.03125 0  0.609375 0.03125 0  0.625 0.03125 0  0.640625 0.03125 0  0.65625 0.03125 0  0.671875 0.03125 0  0.6875 0.03125 0  0.703125 0.03125 0  0.71875 0.03125 0  0.734375 0.03125 0  0.75 0.03125 0  0.765625 0.03125 0  0.78125 0.03125 0  0.796875 0.03125 0  0.8125 0.03125 0  0.828125 0.03125 0  0.84375 0.03125 0  0.859375 0.03125 0  0.875 0.03125 0  0.890625 0.03125 0  0.90625 0.03125 0  0.921875 0.03125 0  0.9375 0.03125 0  0.953125 0.03125 0  0.96875 0.03125 0  0.984375 0.03125 0  1 0.03125 0  0 0.046875 0  0.015625 0.046875 0  0.03125 0.046875 0  0.046875 0.046875 0  0.0625 0.046875 0  0.078125 0.046875 0  0.09375 0.046875 0  0.109375 0.046875 0  0.125 0.046875 0  0.140625 0.046875 0  0.15625 0.046875 0  0.171875 0.046875 0  0.1875 0.046875 0  0.203125 0.046875 0  0.21875 0.046875 0  0.234375 0.046875 0  0.25 0.046875 0  0.265625 0.046875 0  0.28125 0.046875 0  0.296875 0.046875 0  0.3125 0.046875 0  0.328125 0.046875 0  0.34375 0.046875 0  0.359375 0.046875 0  0.375 0.046875 0  0.390625 0.046875 0  0.40625 0.046875 0  0.421875 0.046875 0  0.4375 0.046875 0  0.453125 0.046875 0  0.46875 0.046875 0  0.484375 0.046875 0  0.5 0.046875 0  0.515625 0.046875 0  0.53125 0.046875 0  0.546875 0.046875 0  0.5625 0.046875 0  0.578125 0.046875 0  0.59375 0.046875 0  0.609375 0.046875 0  0.625 0.046875 0  0.640625 0.046875 0  0.65625 0.046875 0  0.671875 0.046875 0  0.6875 0.046875 0  0.703125 0.046875 0  0.71875 0.046875 0  0.734375 0.046875 0  0.75 0.046875 0  0.765625 0.046875 0  0.78125 0.046875 0  0.796875 0.046875 0  0.8125 0.046875 0  0.828125 0.046875 0  0.84375 0.046875 0  0.859375 0.046875 0  0.875 0.046875 0  0.890625 0.046875 0  0.90625 0.046875 0  0.921875 0.046875 0  0.9375 0.046875 0  0.953125 0.046875 0  0.96875 0.046875 0  0.984375 0.046875 0  1 0.046875 0  0 0.0625 0  0.015625 0.0625 0  0.03125 0.0625 0  0.046875 0.0625 0  0.0625 0.0625 0  0.078125 0.0625 0  0.09375 0.0625 0  0.109375 0.0625 0  0.125 0.0625 0  0.140625 0.0625 0  0.15625 0.0625 0  0.171875 0.0625 0  0.1875 0.0625 0  0.203125 0.0625 0  0.21875 0.0625 0  0.234375 0.0625 0  0.25 0.0625 0  0.265625 0.0625 0  0.28125 0.0625 0  0.296875 0.0625 0  0.3125 0.0625 0  0.328125 0.0625 0  0.34375 0.0625 0  0.359375 0.0625 0  0.375 0.0625 0  0.390625 0.0625 0  0.40625 0.0625 0  0.421875 0.0625 0  0.4375 0.0625 0  0.453125 0.0625 0  0.46875 0.0625 0  0.484375 0.0625 0  0.5 0.0625 0  0.515625 0.0625 0  0.53125 0.0625 0  0.546875 0.0625 0  0.5625 0.0625 0  0.578125 0.0625 0  0.59375 0.0625 0  0.609375 0.0625 0  0.625 0.0625 0  0.640625 0.0625 0  0.65625 0.0625 0  0.671875 0.0625 0  0.6875 0.0625 0  0.703125 0.0625 0  0.71875 0.0625 0  0.734375 0.0625 0  0.75 0.0625 0  0.765625 0.0625 0  0.78125 0.0625 0  0.796875 0.0625 0  0.8125 0.0625 0  0.828125 0.0625 0  0.84375 0.0625 0  0.859375 0.0625 0  0.875 0.0625 0  0.890625 0.0625 0  0.90625 0.0625 0  0.921875 0.0625 0  0.9375 0.0625 0  0.953125 0.0625 0  0.96875 0.0625 0  0.984375 0.0625 0  1 0.0625 0  0 0.078125 0  0.015625 0.078125 0  0.03125 0.078125 0  0.046875 0.078125 0  0.0625 0.078125 0  0.078125 0.078125 0  0.09375 0.078125 0  0.109375 0.078125 0  0.125 0.078125 0  0.140625 0.078125 0  0.15625 0.078125 0  0.171875 0.078125 0  0.1875 0.078125 0  0.203125 0.078125 0  0.21875 0.078125 0  0.234375 0.078125 0  0.25 0.078125 0  0.265625 0.078125 0  0.28125 0.078125 0  0.296875 0.078125 0  0.3125 0.078125 0  0.328125 0.078125 0  0.34375 0.078125 0  0.359375 0.078125 0  0.375 0.078125 0  0.390625 0.078125 0  0.40625 0.078125 0  0.421875 0.078125 0  0.4375 0.078125 0  0.453125 0.078125 0  0.46875 0.078125 0  0.484375 0.078125 0  0.5 0.078125 0  0.515625 0.078125 0  0.53125 0.078125 0  0.546875 0.078125 0  0.5625 0.078125 0  0.578125 0.078125 0  0.59375 0.078125 0  0.609375 0.078125 0  0.625 0.078125 0  0.640625 0.078125 0  0.65625 0.078125 0  0.671875 0.078125 0  0.6875 0.078125 0  0.703125 0.078125 0  0.71875 0.078125 0  0.734375 0.078125 0  0.75 0.078125 0  0.765625 0.078125 0  0.78125 0.078125 0  0.796875 0.078125 0  0.8125 0.078125 0  0.828125 0.078125 0  0.84375 0.078125 0  0.859375 0.078125 0  0.875 0.078125 0  0.890625 0.078125 0  0.90625 0.078125 0  0.921875 0.078125 0  0.9375 0.078125 0  0.953125 0.078125 0  0.96875 0.078125 0  0.984375 0.078125 0  1 0.078125 0  0 0.09375 0  0.015625 0.09375 0  0.03125 0.09375 0  0.046875 0.09375 0  0.0625 0.09375 0  0.078125 0.09375 0  0.09375 0.09375 0  0.109375 0.09375 0  0.125 0.09375 0  0.140625 0.09375 0  0.15625 0.09375 0  0.171875 0.09375 0  0.1875 0.09375 0  0.203125 0.09375 0  0.21875 0.09375 0  0.234375 0.09375 0  0.25 0.09375 0  0.265625 0.09375 0  0.28125 0.09375 0  0.296875 0.09375 0  0.3125 0.09375 0  0.328125 0.09375 0  0.34375 0.09375 0  0.359375 0.09375 0  0.375 0.09375 0  0.390625 0.09375 0  0.40625 0.09375 0  0.421875 0.09375 0  0.4375 0.09375 0  0.453125 0.09375 0  0.46875 0.09375 0  0.484375 0.09375 0  0.5 0.09375 0  0.515625 0.09375 0  0.53125 0.09375 0  0.546875 0.09375 0  0.5625 0.09375 0  0.578125 0.09375 0  0.59375 0.09375 0  0.609375 0.09375 0  0.625 0.09375 0  0.640625 0.09375 0  0.65625 0.09375 0  0.671875 0.09375 0  0.6875 0.09375 0  0.703125 0.09375 0  0.71875 0.09375 0  0.734375 0.09375 0  0.75 0.09375 0  0.765625 0.09375 0  0.78125 0.09375 0  0.796875 0.09375 0  0.8125 0.09375 0  0.828125 0.09375 0  0.84375 0.09375 0  0.859375 0.09375 0  0.875 0.09375 0  0.890625 0.09375 0  0.90625 0.09375 0  0.921875 0.09375 0  0.9375 0.09375 0  0.953125 0.09375 0  0.96875 0.09375 0  0.984375 0.09375 0  1 0.09375 0  0 0.109375 0  0.015625 0.109375 0  0.03125 0.109375 0  0.046875 0.109375 0  0.0625 0.109375 0  0.078125 0.109375 0  0.09375 0.109375 0  0.109375 0.109375 0  0.125 0.109375 0  0.140625 0.109375 0  0.15625 0.109375 0  0.171875 0.109375 0  0.1875 0.109375 0  0.203125 0.109375 0  0.21875 0.109375 0  0.234375 0.109375 0  0.25 0.109375 0  0.265625 0.109375 0  0.28125 0.109375 0  0.296875 0.109375 0  0.3125 0.109375 0  0.328125 0.109375 0  0.34375 0.109375 0  0.359375 0.109375 0  0.375 0.109375 0  0.390625 0.109375 0  0.40625 0.109375 0  0.421875 0.109375 0  0.4375 0.109375 0  0.453125 0.109375 0  0.46875 0.109375 0  0.484375 0.109375 0  0.5 0.109375 0  0.515625 0.109375 0  0.53125 0.109375 0  0.546875 0.109375 0  0.5625 0.109375 0  0.578125 0.109375 0  0.59375 0.109375 0  0.609375 0.109375 0  0.625 0.109375 0  0.640625 0.109375 0  0.65625 0.109375 0  0.671875 0.109375 0  0.6875 0.109375 0  0.703125 0.109375 0  0.71875 0.109375 0  0.734375 0.109375 0  0.75 0.109375 0  0.765625 0.109375 0  0.78125 0.109375 0  0.796875 0.109375 0  0.8125 0.109375 0  0.828125 0.109375 0  0.84375 0.109375 0  0.859375 0.109375 0  0.875 0.109375 0  0.890625 0.109375 0  0.90625 0.109375 0  0.921875 0.109375 0  0.9375 0.109375 0  0.953125 0.109375 0  0.96875 0.109375 0  0.984375 0.109375 0  1 0.109375 0  0 0.125 0  0.015625 0.125 0  0.03125 0.125 0  0.046875 0.125 0  0.0625 0.125 0  0.078125 0.125 0  0.09375 0.125 0  0.109375 0.125 0  0.125 0.1
[...]
<PointData  Scalars="f_297"> 
<DataArray  type="Float64"  Name="f_297"  format="ascii">0.0000000000000000e+00  0.0000000000000000e+00  0.0000000000000000e+00  0.0000000000000000e+00  0.0000000000000000e+00  0.0000000000000000e+00  0.0000000000000000e+00  0.0000000000000000e+00  0.0000000000000000e+00  0.0000000000000000e+00  0.0000000000000000e+00  0.0000000000000000e+00  0.0000000000000000e+00  0.0000000000000000e+00  0.0000000000000000e+00  0.0000000000000000e+00  0.0000000000000000e+00  0.0000000000000000e+00  0.0000000000000000e+00  0.0000000000000000e+00  0.0000000000000000e+00  0.0000000000000000e+00  0.0000000000000000e+00  0.0000000000000000e+00  0.0000000000000000e+00  0.0000000000000000e+00  0.0000000000000000e+00  0.0000000000000000e+00  0.0000000000000000e+00  0.0000000000000000e+00  0.0000000000000000e+00  0.0000000000000000e+00  0.0000000000000000e+00  0.0000000000000000e+00  0.0000000000000000e+00  0.0000000000000000e+00  0.0000000000000000e+00  0.0000000000000000e+00  0.0000000000000000e+00  0.0000000000000000e+00  0.0000000000000000e+00  0.0000000000000000e+00  0.0000000000000000e+00  0.0000000000000000e+00  0.0000000000000000e+00  0.0000000000000000e+00  0.0000000000000000e+00  0.0000000000000000e+00  0.0000000000000000e+00  0.0000000000000000e+00  0.0000000000000000e+00  0.0000000000000000e+00  0.0000000000000000e+00  0.0000000000000000e+00  0.0000000000000000e+00  0.0000000000000000e+00  0.0000000000000000e+00  0.0000000000000000e+00  0.0000000000000000e+00  0.0000000000000000e+00  0.0000000000000000e+00  0.0000000000000000e+00  0.0000000000000000e+00  0.0000000000000000e+00  0.0000000000000000e+00  0.0000000000000000e+00  2.4033561692114020e-04  4.8067125176387608e-04  7.2100692249924686e-04  9.6134264719884639e-04  1.2016784440893324e-03  1.4420143316121663e-03  1.6823503284906117e-03  1.9226864538062526e-03  2.1630227270876185e-03  2.4033591684138938e-03  2.6436957985371988e-03  2.8840326390275062e-03  3.1243697124450163e-03  3.3647070425456252e-03  3.6050446545262045e-03  3.8453825753175753e-03  4.0857208339345353e-03  4.3260594618939729e-03  4.5663984937140932e-03  4.8067379675101381e-03  5.0470779257047434e-03  5.2874184158742728e-03  5.5277594917563381e-03  5.7681012144480950e-03  6.0084436538302500e-03  6.2487868902578493e-03  6.4891310165662705e-03  6.7294761404495425e-03  6.9698223872784416e-03  7.2101699034382277e-03  7.4505188602807977e-03  7.6908694588040836e-03  7.9312219351937198e-03  8.1715765673889204e-03  8.4119336828685047e-03  8.6522936678948628e-03  8.8926569785067640e-03  9.1330241536181009e-03  9.3733958306604723e-03  9.6137727642952933e-03  9.8541558487791527e-03  1.0094546144458653e-02  1.0334944908166107e-02  1.0575353624691934e-02  1.0815774028330413e-02  1.1056208079547238e-02  1.1296657794837751e-02  1.1537124646748225e-02  1.1777607774844082e-02  1.2018099026443910e-02  1.2258569778771315e-02  1.2498936951279261e-02  1.2738977417808895e-02  1.2978116894903170e-02  1.3214918825224695e-02  1.3445867765169419e-02  1.3662517332662468e-02  1.3844890638873630e-02  1.3946369818143378e-02  1.3859756527044281e-02  1.3342183851047780e-02  1.1868042419274786e-02  8.2954885765835311e-03  0.0000000000000000e+00  0.0000000000000000e+00  4.7304182140169232e-04  9.4608367859754579e-04  1.4191256074789545e-03  1.8921676441350577e-03  2.3652098249599273e-03  2.8382521867700511e-03  3.3112947669360769e-03  3.7843376035332924e-03  4.2573807355159058e-03  4.7304242029210224e-03  5.2034680471091449e-03  5.6765123110492652e-03  6.1495570396579661e-03  6.6226022802037300e-03  7.0956480827896393e-03  7.5686945009300500e-03  8.0417415922396825e-03  8.5147894192569105e-03  8.9878380504269158e-03  9.4608875612751438e-03  9.9339380358067775e-03  1.0406989568174390e-02  1.0880042264663563e-02  1.1353096246054807e-02  1.1826151650430782e-02  1.2299208636509743e-02  1.2772267387600879e-02  1.3245328116293954e-02  1.3718391070016291e-02  1.4191456537614222e-02  1.4664524857145523e-02  1.5137596425104602e-02  1.5610671707345154e-02  1.6083751252018344e-02  1.6556835704909220e-02  1.7029925827636391e-02  1.7503022519280965e-02  1.7976126842137584e-02  1.8449240052431003e-02  1.8922363636999496e-02  1.9395499357029715e-02  1.9868649299654047e-02  2.0341815936706507e-02  2.0815002184561542e-02  2.1288211442340874e-02  2.1761447537530464e-02  2.2234714373962374e-02  2.2708014716113490e-02  2.3181346597270603e-02  2.3654693415833018e-02  2.4127997711608087e-02  2.4601093700263615e-02  2.5073537704054530e-02  2.5544190548157063e-02  2.6010208045298768e-02  2.6464642483197683e-02  2.6890835968895705e-02  2.7249511615310827e-02  2.7449427627794232e-02  2.7280638039364643e-02  2.6268638738634196e-02  2.3402976593688146e-02  1.6298164261343104e-02  0.0000000000000000e+00  0.0000000000000000e+00  6.9811859558093804e-04  1.3962372447321831e-03  2.0943560011658121e-03  2.7924749188822204e-03  3.4905940523264002e-03  4.1887134565592177e-03  4.8868331874494944e-03  5.5849533018933915e-03  6.2830738580685252e-03  6.9811949157314087e-03  7.6793165365681999e-03  8.3774387846105598e-03  9.0755617267304235e-03  9.7736854332300324e-03  1.0471809978546581e-02  1.1169935442094280e-02  1.1868061909270887e-02  1.2566189472660604e-02  1.3264318233471049e-02  1.3962448303248878e-02  1.4660579805926456e-02  1.5358712880261543e-02  1.6056847682742820e-02  1.6754984391047105e-02  1.7453123208149211e-02  1.8151264367203278e-02  1.8849408137335606e-02  1.9547554830513729e-02  2.0245704809686280e-02  2.0943858498423198e-02  2.1642016392328624e-02  2.2340179072549295e-02  2.3038347221763719e-02  2.3736521643113087e-02  2.4434703282628298e-02  2.5132893255823175e-02  2.5831092879267305e-02  2.6529303708126822e-02  2.7227527580865236e-02  2.7925766672494023e-02  2.8624023557818342e-02  2.9322301285587118e-02  3.0020603461952660e-02  3.0718934333172764e-02  3.1417298831819131e-02  3.2115702477293784e-02  3.2814150818977331e-02  3.3512647568326601e-02  3.4211189151107470e-02  3.4909749798278739e-02  3.5608242261392496e-02  3.6306417092654863e-02  3.7003610136193014e-02  3.7698121893342589e-02  3.8385719691159365e-02  3.9056084772288752e-02  3.9684524152612213e-02  4.0212954198353974e-02  4.0507032428407780e-02  4.0261799849303830e-02  3.8775328846366267e-02  3.4553145585861922e-02  2.4053772264105423e-02  0.0000000000000000e+00  0.0000000000000000e+00  9.1556592169377341e-04  1.8311319145934138e-03  2.7466980500863570e-03  3.6622643999292908e-03  4.5778310364482820e-03  5.4933980327581105e-03  6.4089654630082229e-03  7.3245334026636674e-03  8.2401019288305295e-03  9.1556711206368675e-03  1.0071241059682096e-02  1.0986811830569829e-02  1.1902383521542100e-02  1.2817956225235950e-02  1.3733530039587325e-02  1.4649105068911691e-02  1.5564681425196309e-02  1.6480259229645269e-02  1.7395838614526090e-02  1.8311419725375290e-02  1.9227002723630867e-02  2.0142587789771526e-02  2.1058175127056922e-02  2.1973764965979858e-02  2.2889357569560658e-02  2.3804953239637480e-02  2.4720552324332918e-02  2.5636155226909457e-02  2.6551762416264172e-02  2.7467374439357949e-02  2.8382991935928251e-02  2.9298615655899144e-02  3.0214246479980191e-02  3.1129885444041053e-02  3.2045533767965186e-02  3.2961192889828884e-02  3.3876864506427899e-02  3.4792550621384477e-02  3.5708253602304743e-02  3.6623976248663287e-02  3.7539721872069887e-02  3.8455494389687365e-02  3.9371298427922204e-02  4.0287139421667874e-02  4.1203023659227685e-02  4.2118958123669406e-02  4.3034949709667897e-02  4.3951002671649947e-02  4.4867111278298635e-02  4.5783239861274111e-02  4.6699270503152535e-02  4.7614869377540468e-02  4.8529152494354799e-02  4.9439865653121841e-02  5.0341407978862246e-02  5.1220147729636116e-02  5.2043498768501124e-02  5.2734845071822752e-02  5.3116886259532675e-02  5.2786028935596391e-02  5.0888549046142532e-02  4.5335539208722325e-02  3.1542499310366630e-02  0.0000000000000000e+00  0.0000000000000000e+00  1.1253837821145049e-03  2.2507676528903831e-03  3.3761517012043151e-03  4.5015360163708296e-03  5.6269206883795778e-03  6.7523058081553570e-03  7.8776914678496783e-03  9.0030777611737837e-03  1.0128464783784451e-02  1.1253852633735706e-02  1.2379241412011749e-02  1.3504631223159175e-02  1.4630022176039700e-02  1.5755414384728602e-02  1.6880807969588574e-02  1.8006203058554351e-02  1.9131599788669702e-02  2.0256998307926329e-02  2.1382398777462897e-02  2.2507801374193202e-02  2.3633206293945004e-02  2.4758613755205230e-02  2.5884024003584808e-02  2.7009437317136148e-02  2.8134854012679705e-02  2.9260274453323794e-02  3.0385699057393942e-02  3.1511128309026214e-02  3.2636562770723521e-02  3.3762003098227460e-02  3.4887450058120710e-02  3.6012904548651116e-02  3.7138367624358695e-02  3.8263840525197122e-02  3.9389324710974769e-02  4.0514821902103398e-02  4.1640334127840857e-02  4.2765863783448502e-02  4.3891413697936935e-02  4.5016987214270013e-02  4.6142588283768125e-02  4.7268221575179181e-02  4.8393892594051739e-02  4.9519607792789438e-02  5.0645374607144703e-02  5.1771201229875580e-02  5.2897095592430818e-02  5.4023062124524596e-02  5.5149092525362230e-02  5.6275140847160066e-02  5.7401058414727882e-02  5.8526427982497450e-02  5.9650149792537216e-02  6.0769427455794355e-02  6.1877326141828226e-02  6.2956988599397343e-02  6.3968145548399871e-02  6.4816110207056646e-02  6.5281424022560763e-02  6.4861162093299021e-02  6.2469308236604501e-02  5.5527346720552234e-02  3.8748009942054976e-02  0.0000000000000000e+00  0.0000000000000000e+00  1.3275721593959901e-03  2.6551444246953491e-03  3.9827169020433140e-03  5.3102896980769653e-03  6.6378629201917054e-03  7.9654366768332312e-03  9.2930110778248996e-03  1.0620586234741606e-02  1.1948162261342930e-02  1.3275739274080375e-02  1.4603317392696016e-02  1.5930896740932916e-02  1.7258477447381473e-02  1.8586059646490030e-02  1.9913643479773816e-02  2.1241229097262053e-02  2.2568816659230672e-02  2.3896406338277078e-02  2.5223998321803047e-02  2.6551592814984770e-02  2.7879190044322558e-02  2.9206790261879792e-02  3.0534393750340127e-02  3.1862000829034683e-02  3.3189611861117997e-02  3.4517227262102289e-02  3.5844847509997085e-02  3.7172473157343074e-02  3.8500104845480339e-02  3.9827743321450414e-02  4.1155389458001464e-02  4.2483044277249360e-02  4.3810708978647354e-02  4.5138384972036504e-02  4.6466073916693405e-02  4.7793777767467648e-02  4.9121498829311723e-02  5.0449239821752576e-02  5.1777003955112422e-02  5.3104795020460678e-02  5.4432617495045403e-02  5.5760476663318889e-02  5.7088378747746603e-02  5.8416331025168876e-02  5.9744341851018651e-02  6.1072420364501376e-02  6.2400575243396539e-02  6.3728810806877978e-02  6.5057115993522319e-02  6.6385434710571678e-02  6.7713588553041881e-02  6.9041080146648115e-02  7.0366602789489127e-02  7.1686840068944782e-02  7.2993577489387257e-02  7.4266864799497012e-02  7.5459078051372974e-02  7.6458313868665750e-02  7.7005501726945133e-02  7.6509798581153143e-02  7.3698323584484179e-02  6.5536707774516825e-02  4.5682910217683961e-02  0.0000000000000000e+00  0.0000000000000000e+00  1.5221310363028216e-03  3.0442621955111483e-03  4.5663936007908799e-03  6.0885253758373933e-03  7.6106576451623210e-03  9.1327905344076692e-03  1.0654924170697922e-02  1.2177058683042131e-02  1.3699194202799747e-02  1.5221330864226173e-02  1.6743468805116894e-02  1.8265608167572243e-02  1.9787749098908937e-02  2.1309891752749492e-02  2.2832036290326346e-02  2.4354182882044356e-02  2.5876331709353530e-02  2.7398482966993397e-02  2.8920636865681960e-02  3.0442793635335252e-02  3.1964953528919253e-02  3.3487116827054332e-02  3.5009283843513969e-02  3.6531454931784280e-02  3.8053630492880679e-02  3.9575810984651842e-02  4.1097996932841711e-02  4.2620188944226388e-02  4.4142387722197765e-02  4.5664594085229437e-02  4.7186808988735694e-02  4.8709033550922244e-02  5.0231269083332426e-02  5.1753517126916899e-02  5.3275779494603950e-02  5.4798058321527253e-02  5.6320356124281191e-02  5.7842675870822383e-02  5.9365021062889434e-02  6.0887395832964583e-02  6.2409805057479818e-02  6.3932254486048848e-02  6.5454750879675352e-02  6.6977302129774985e-02  6.8499917268613056e-02  7.0022606110873992e-02  7.1545377802646790e-02  7.3068236327298267e-02  7.4591167840145217e-02  7.6114106639933107e-02  7.7636846514166524e-02  7.9158815159391882e-02  8.0678511701471792e-02  8.2192129778351955e-02  8.3690244804561165e-02  8.5149974479753754e-02  8.6516719019492885e-02  8.7662277087219409e-02  8.8290214031852582e-02  8.7725240547811195e-02  8.4512469741082147e-02  7.5136305565133454e-02  5.2184474368185449e-02  0.0000000000000000e+00  0.0000000000000000e+00  1.7090603958374575e-03  3.4181209313243147e-03  5.1271817463802837e-03  6.8362429814746517e-03  8.5453047779237915e-03  1.0254367278216887e-02  1.1963430626380897e-02  1.3672494968397163e-02  1.5381560452684054e-02  1.7090627230662268e-02  1.8799695457422473e-02  2.0508765292518379e-02  2.2217836900912748e-02  2.3926910454109010e-02  2.5635986131507197e-02  2.7345064122030343e-02  2.9054144626076139e-02  3.0763227857858771e-02  3.2472314048218195e-02  3.4181403447988180e-02  3.5890496332031042e-02  3.7599593004066949e-02  3.9308693802448363e-02  4.1017799107057010e-02  4.2726909347532337e-02  4.4436025013076294e-02  4.6145146664122734e-02  4.7854274946207788e-02  4.9563410606435931e-02  5.1272554513002701e-02  5.2981707678312354e-02  5.4690871286319741e-02  5.6400046724830809e-02  5.8109235623621643e-02  5.9818439899382153e-02  6.1527661808666714e-02  6.3236904010240874e-02  6.4946169638450388e-02  6.6655462389478087e-02  6.8364786622476720e-02  7.0074147477173249e-02  7.1783551007397098e-02  7.3493004322444502e-02  7.5202515704868855e-02  7.6912094605443612e-02  7.8621751226153863e-02  8.0331494885823362e-02  8.2041328993714427e-02  8.3751236904682030e-02  8.5461143905773987e-02  8.7170818104386510e-02  8.8879618027242882e-02  9.0585862763382527e-02  9.2285289028281578e-02  9.3967336791452874e-02  9.5606355508595114e-02  9.7141119055193931e-02  9.8427846532851040e-02  9.9134036461197922e-02  9.8501704284608915e-02  9.4899237410428064e-02  8.4374954929225837e-02  5.8836616559828199e-02  0.0000000000000000e+00  0.0000000000000000e+00  1.8883602212584661e-03  3.7767205986421358e-03  5.6650812885475641e-03  7.5534424479229067e-03  9.4418042345662864e-03  1.1330166807452203e-02  1.3218530327096993e-02  1.5106894955975812e-02  1.6995260859005486e-02  1.8883628204110162e-02  2.0771997162889373e-02  2.2660367911412297e-02  2.4548740631165789e-02  2.6437115510189679e-02  2.8325492744438772e-02  3.0213872539418832e-02  3.2102255112152443e-02  3.3990640693541900e-02  3.5879029531207952e-02  3.7767421892899028e-02  3.9655818070581904e-02  4.1544218385346228e-02  4.3432623193278286e-02  4.5321032892487997e-02  4.7209447931505347e-02  4.9097868819300144e-02  5.0986296137223650e-02  5.2874730553220506e-02  5.4763172838719031e-02  5.6651623888675173e-02  5.8540084745323941e-02  6.0428556626282021e-02  6.2317040957749002e-02  6.4205539413675142e-02  6.6094053961903196e-02  6.7982586918454865e-02  6.9871141011322219e-02  7.1759719455337462e-02  7.3648326039901207e-02  7.5536965231425168e-02  7.7425642291868699e-02  7.9314363412397407e-02  8.1203135853032044e-02  8.3091968053911891e-02  8.4980869610128421e-02  8.6869850795165668e-02  8.8758920753769996e-02  9.0648081985058609e-02  9.2537314838762541e-02  9.4426535830653385e-02  9.6315488851551792e-02  9.8203467823302887e-02  1.0008862390583982e-01  1.0196626679390189e-01  1.0382477145145494e-01  1.0563587673027389e-01  1.0733205645190155e-01  1.0875457026201428e-01  1.0953604293517288e-01  1.0883876176119453e-01  1.0486249959910691e-01  9.3237825344155228e-02  6.4956684991645031e-02  0.0000000000000000e+00  0.0000000000000000e+00  2.0600304960903108e-03  4.1200611645124735e-03  6.1800921778619325e-03  8.2401237092698046e-03  1.0300155932692267e-02  1.2360189023226767e-02  1.4420223157465613e-02  1.6480258513899060e-02  1.8540295273381736e-02  2.0600333619678855e-02  2.2660373740111643e-02  2.4720415826324848e-02  2.6780460075203960e-02  2.8840506689974899e-02  3.0900555881525266e-02  3.2960607869994094e-02  3.5020662886685920e-02  3.7080721176375515e-02  3.9140783000083078e-02  4.1200848638413619e-02  4.3260918395572681e-02  4.5320992604191167e-02  4.7381071631115983e-02  4.9441155884352037e-02  5.1501245821374005e-02  5.3561341959064819e-02  5.5621444885582468e-02  5.7681555274508182e-02  5.9741673901687706e-02  6.1801801665246105e-02  6.3861939609332438e-02  6.5922088952239680e-02  6.7982251119643414e-02  7.0042427783816377e-02  7.2102620909802573e-02  7.4162832809678739e-02  7.6223066206192541e-02  7.8283324307239971e-02  8.0343610892794154e-02  8.2403930415891682e-02  8.4464288118670725e-02  8.6524690161825180e-02  8.8585143756982010e-02  9.0645657264284654e-02  9.2706240138063500e-02  9.4766902380129373e-02  9.6827652550144652e-02  9.8888491758032396e-02  1.0094939683661223e-01  1.0301027512863391e-01  1.0507084645826591e-01  1.0713034208156762e-01  1.0918675226432459e-01  1.1123498042056298e-01  1.1326239296885149e-01  1.1523826508784242e-01  1.1708913163723222e-01  1.1864204045268631e-01  1.1949610145379977e-01  1.1873671778034388e-01  1.1440125667538036e-01  1.0171614569527934e-01  7.0858194250987966e-02  0.0000000000000000e+00  0.0000000000000000e+00  2.2240712041244276e-03  4.4481425965258621e-03  6.6722143657287399e-03  8.8962867007601164e-03  1.1120359791420623e-02  1.3344433828580032e-02  1.5568509004507044e-02  1.7792585513244613e-02  2.0016663551043704e-02  2.2240743316871002e-02  2.4464825013008631e-02  2.6688908845767845e-02  2.8912995026342848e-02  3.1137083771835952e-02  3.3361175306491665e-02  3.5585269863184860e-02  3.7809367685216685e-02  4.0033469028482913e-02  4.2257574164091448e-02  4.4481683381521066e-02  4.6705796992430340e-02  4.8929915335246772e-02  5.1154038780690178e-02  5.3378167738412530e-02  5.5602302664969669e-02  5.7826444073378613e-02  6.0050592544558516e-02  6.2274748741005040e-02  6.4498913423105403e-02  6.6723087468569336e-02  6.8947271895525478e-02  7.1171467889917364e-02  7.3395676837926749e-02  7.5619900364254672e-02  7.7844140377202456e-02  8.0068399121614661e-02  8.2292679240871025e-02  8.4516983849231536e-02  8.6741316615905367e-02  8.8965681862078691e-02  9.1190084671305405e-02  9.3414531010617474e-02  9.5639027849911698e-02  9.7863583237580640e-02  1.0008820620461067e-01  1.0231290612875624e-01  1.0453769053358347e-01  1.0676255854826071e-01  1.0898748270266270e-01  1.1121236013965287e-01  1.1343688539071807e-01  1.1566022601348566e-01  1.1788021207685676e-01  1.2009134817834841e-01  1.2228002218777821e-01  1.2441314843534373e-01  1.2641166816846808e-01  1.2808957553804207e-01  1.2901447254737186e-01  1.2819708702057184e-01  1.2351802694047792e-01  1.0981957059763849e-01  7.6501563439405576e-02  0.0000000000000000e+00  0.0000000000000000e+00  2.3804823294116670e-03  4.7609648627999750e-03  7.1414478043651825e-03  9.5219313587614433e-03  1.1902415731340755e-02  1.4282901128418138e-02  1.6663387757566608e-02  1.9043875827951827e-02  2.1424365550718028e-02  2.3804857139438949e-02  2.6185350810650390e-02  2.8565846784484129e-02  3.0946345285427224e-02  3.3326846543235381e-02  3.5707350794035336e-02  3.8087858281657769e-02  4.0468369259251326e-02  4.2848883991237867e-02  4.5229402755681568e-02  4.7609925847158195e-02  4.9990453580228404e-02  5.2370986293638289e-02  5.4751524355394217e-02  5.7132068168886593e-02  5.9512618180269226e-02  6.1893174887338975e-02  6.4273738850203585e-02  6.6654310704075903e-02  6.9034891174590732e-02  7.1415481096104003e-02  7.3796081433509186e-02  7.6176693308184093e-02  7.8557318028770445e-02  8.0937957127580618e-02  8.3318612403522882e-02  8.5699285972529834e-02  8.8079980326559879e-02  9.0460698402292899e-02  9.2841443660604012e-02  9.5222220177588218e-02  9.7603032746774870e-02  9.9983886988536913e-02  1.0236478945165396e-01  1.0474574765947352e-01  1.0712676996005456e-01  1.0950786478014303e-01  1.1188903817665301e-01  1.1427028670223789e-01  1.166515777214346