<?xml version="1.0"?>
<VTKFile type="UnstructuredGrid"  version="0.1"  >
<UnstructuredGrid>
<Piece  NumberOfPoints="1061" NumberOfCells="2000">
<Points>
<DataArray  type="Float64"  NumberOfComponents="3"  format="ascii">0 0 0  0.02 0 0  0.04 0 0  0.06 0 0  0.08 0 0  0.1 0 0  0.12 0 0  0.14 0 0  0.16 0 0  0.18 0 0  0.2 0 0  0.22 0 0  0.24 0 0  0.26 0 0  0.28 0 0  0.3 0 0  0.32 0 0  0.34 0 0  0.36 0 0  0.38 0 0  0.4 0 0  0.42 0 0  0.44 0 0  0.46 0 0  0.48 0 0  0.5 0 0  0.52 0 0  0.54 0 0  0.5600000000000001 0 0  0.58 0 0  0.6 0 0  0.62 0 0  0.64 0 0  0.66 0 0  0.68 0 0  0.7 0 0  0.72 0 0  0.74 0 0  0.76 0 0  0.78 0 0  0.8 0 0  0.82 0 0  0.84 0 0  0.86 0 0  0.88 0 0  0.9 0 0  0.92 0 0  0.9399999999999999 0 0  0.96 0 0  0.98 0 0  1 0 0  0 0.02 0  0.02 0.02 0  0.04 0.02 0  0.06 0.02 0  0.08 0.02 0  0.1 0.02 0  0.12 0.02 0  0.14 0.02 0  0.16 0.02 0  0.18 0.02 0  0.2 0.02 0  0.22 0.02 0  0.24 0.02 0  0.26 0.02 0  0.28 0.02 0  0.3 0.02 0  0.32 0.02 0  0.34 0.02 0  0.36 0.02 0  0.38 0.02 0  0.4 0.02 0  0.42 0.02 0  0.44 0.02 0  0.46 0.02 0  0.48 0.02 0  0.5 0.02 0  0.52 0.02 0  0.54 0.02 0  0.5600000000000001 0.02 0  0.58 0.02 0  0.6 0.02 0  0.62 0.02 0  0.64 0.02 0  0.66 0.02 0  0.68 0.02 0  0.7 0.02 0  0.72 0.02 0  0.74 0.02 0  0.76 0.02 0  0.78 0.02 0  0.8 0.02 0  0.82 0.02 0  0.84 0.02 0  0.86 0.02 0  0.88 0.02 0  0.9 0.02 0  0.92 0.02 0  0.9399999999999999 0.02 0  0.96 0.02 0  0.98 0.02 0  1 0.02 0  0 0.04 0  0.02 0.04 0  0.04 0.04 0  0.06 0.04 0  0.08 0.04 0  0.1 0.04 0  0.12 0.04 0  0.14 0.04 0  0.16 0.04 0  0.18 0.04 0  0.2 0.04 0  0.22 0.04 0  0.24 0.04 0  0.26 0.04 0  0.28 0.04 0  0.3 0.04 0  0.32 0.04 0  0.34 0.04 0  0.36 0.04 0  0.38 0.04 0  0.4 0.04 0  0.42 0.04 0  0.44 0.04 0  0.46 0.04 0  0.48 0.04 0  0.5 0.04 0  0.52 0.04 0  0.54 0.04 0  0.5600000000000001 0.04 0  0.58 0.04 0  0.6 0.04 0  0.62 0.04 0  0.64 0.04 0  0.66 0.04 0  0.68 0.04 0  0.7 0.04 0  0.72 0.04 0  0.74 0.04 0  0.76 0.04 0  0.78 0.04 0  0.8 0.04 0  0.82 0.04 0  0.84 0.04 0  0.86 0.04 0  0.88 0.04 0  0.9 0.04 0  0.92 0.04 0  0.9399999999999999 0.04 0  0.96 0.04 0  0.98 0.04 0  1 0.04 0  0 0.06000000000000001 0  0.02 0.06000000000000001 0  0.04 0.06000000000000001 0  0.06 0.06000000000000001 0  0.08 0.06000000000000001 0  0.1 0.06000000000000001 0  0.12 0.06000000000000001 0  0.14 0.06000000000000001 0  0.16 0.06000000000000001 0  0.18 0.06000000000000001 0  0.2 0.06000000000000001 0  0.22 0.06000000000000001 0  0.24 0.06000000000000001 0  0.26 0.06000000000000001 0  0.28 0.06000000000000001 0  0.3 0.06000000000000001 0  0.32 0.06000000000000001 0  0.34 0.06000000000000001 0  0.36 0.06000000000000001 0  0.38 0.06000000000000001 0  0.4 0.06000000000000001 0  0.42 0.06000000000000001 0  0.44 0.06000000000000001 0  0.46 0.06000000000000001 0  0.48 0.06000000000000001 0  0.5 0.06000000000000001 0  0.52 0.06000000000000001 0  0.54 0.06000000000000001 0  0.5600000000000001 0.06000000000000001 0  0.58 0.06000000000000001 0  0.6 0.06000000000000001 0  0.62 0.06000000000000001 0  0.64 0.06000000000000001 0  0.66 0.06000000000000001 0  0.68 0.06000000000000001 0  0.7 0.06000000000000001 0  0.72 0.06000000000000001 0  0.74 0.06000000000000001 0  0.76 0.06000000000000001 0  0.78 0.06000000000000001 0  0.8 0.06000000000000001 0  0.82 0.06000000000000001 0  0.84 0.06000000000000001 0  0.86 0.06000000000000001 0  0.88 0.06000000000000001 0  0.9 0.06000000000000001 0  0.92 0.06000000000000001 0  0.9399999999999999 0.06000000000000001 0  0.96 0.06000000000000001 0  0.98 0.06000000000000001 0  1 0.06000000000000001 0  0 0.08 0  0.02 0.08 0  0.04 0.08 0  0.06 0.08 0  0.08 0.08 0  0.1 0.08 0  0.12 0.08 0  0.14 0.08 0  0.16 0.08 0  0.18 0.08 0  0.2 0.08 0  0.22 0.08 0  0.24 0.08 0  0.26 0.08 0  0.28 0.08 0  0.3 0.08 0  0.32 0.08 0  0.34 0.08 0  0.36 0.08 0  0.38 0.08 0  0.4 0.08 0  0.42 0.08 0  0.44 0.08 0  0.46 0.08 0  0.48 0.08 0  0.5 0.08 0  0.52 0.08 0  0.54 0.08 0  0.5600000000000001 0.08 0  0.58 0.08 0  0.6 0.08 0  0.62 0.08 0  0.64 0.08 0  0.66 0.08 0  0.68 0.08 0  0.7 0.08 0  0.72 0.08 0  0.74 0.08 0  0.76 0.08 0  0.78 0.08 0  0.8 0.08 0  0.82 0.08 0  0.84 0.08 0  0.86 0.08 0  0.88 0.08 0  0.9 0.08 0  0.92 0.08 0  0.9399999999999999 0.08 0  0.96 0.08 0  0.98 0.08 0  1 0.08 0  0 0.1 0  0.02 0.1 0  0.04 0.1 0  0.06 0.1 0  0.08 0.1 0  0.1 0.1 0  0.12 0.1 0  0.14 0.1 0  0.16 0.1 0  0.18 0.1 0  0.2 0.1 0  0.22 0.1 0  0.24 0.1 0  0.26 0.1 0  0.28 0.1 0  0.3 0.1 0  0.32 0.1 0  0.34 0.1 0  0.36 0.1 0  0.38 0.1 0  0.4 0.1 0  0.42 0.1 0  0.44 0.1 0  0.46 0.1 0  0.48 0.1 0  0.5 0.1 0  0.52 0.1 0  0.54 0.1 0  0.5600000000000001 0.1 0  0.58 0.1 0  0.6 0.1 0  0.62 0.1 0  0.64 0.1 0  0.66 0.1 0  0.68 0.1 0  0.7 0.1 0  0.72 0.1 0  0.74 0.1 0  0.76 0.1 0  0.78 0.1 0  0.8 0.1 0  0.82 0.1 0  0.84 0.1 0  0.86 0.1 0  0.88 0.1 0  0.9 0.1 0  0.92 0.1 0  0.9399999999999999 0.1 0  0.96 0.1 0  0.98 0.1 0  1 0.1 0  0 0.12 0  0.02 0.12 0  0.04 0.12 0  0.06 0.12 0  0.08 0.12 0  0.1 0.12 0  0.12 0.12 0  0.14 0.12 0  0.16 0.12 0  0.18 0.12 0  0.2 0.12 0  0.22 0.12 0  0.24 0.12 0  0.26 0.12 0  0.28 0.12 0  0.3 0.12 0  0.32 0.12 0  0.34 0.12 0  0.36 0.12 0  0.38 0.12 0  0.4 0.12 0  0.42 0.12 0  0.44 0.12 0  0.46 0.12 0  0.48 0.12 0  0.5 0.12 0  0.52 0.12 0  0.54 0.12 0  0.5600000000000001 0.12 0  0.58 0.12 0  0.6 0.12 0  0.62 0.12 0  0.64 0.12 0  0.66 0.12 0  0.68 0.12 0  0.7 0.12 0  0.72 0.12 0  0.74 0.12 0  0.76 0.12 0  0.78 0.12 0  0.8 0.12 0  0.82 0.12 0  0.84 0.12 0  0.86 0.12 0  0.88 0.12 0  0.9 0.12 0  0.92 0.12 0  0.9399999999999999 0.12 0  0.96 0.12 0  0.98 0.12 0  1 0.12 0  0 0.14 0  0.02 0.14 0  0.04 0.14 0  0.06 0.14 0  0.08 0.14 0  0.1 0.14 0  0.12 0.14 0  0.14 0.14 0  0.16 0.14 0  0.18 0.14 0  0.2 0.14 0  0.22 0.14 0  0.24 0.14 0  0.26 0.14 0  0.28 0.14 0  0.3 0.14 0  0.32 0.14 0  0.34 0.14 0  0.36 0.14 0  0.38 0.14 0  0.4 0.14 0  0.42 0.14 0  0.44 0.14 0  0.46 0.14 0  0.48 0.14 0  0.5 0.14 0  0.52 0.14 0  0.54 0.14 0  0.5600000000000001 0.14 0  0.58 0.14 0  0.6 0.14 0  0.62 0.14 0  0.64 0.14 0  0.66 0.14 0  0.68 0.14 0  0.7 0.14 0  0.72 0.14 0  0.74 0.14 0  0.76 0.14 0  0.78 0.14 0  0.8 0.14 0  0.82 0.14 0  0.84 0.14 0  0.86 0.14 0  0.88 0.14 0  0.9 0.14 0  0.92 0.14 0  0.9399999999999999 0.14 0  0.96 0.14 0  0.98 0.14 0  1 0.14 0  0 0.16 0  0.02 0.16 0  0.04 0.16 0  0.06 0.16 0  0.08 0.16 0  0.1 0.16 0  0.12 0.16 0  0.14 0.16 0  0.16 0.16 0  0.18 0.16 0  0.2 0.16 0  0.22 0.16 0  0.24 0.16 0  0.26 0.16 0  0.28 0.16 0  0.3 0.16 0  0.32 0.16 0  0.34 0.16 0  0.36 0.16 0  0.38 0.16 0  0.4 0.16 0  0.42 0.16 0  0.44 0.16 0  0.46 0.16 0  0.48 0.16 0  0.5 0.16 0  0.52 0.16 0  0.54 0.16 0  0.5600000000000001 0.16 0  0.58 0.16 0  0.6 0.16 0  0.62 0.16 0  0.64 0.16 0  0.66 0.16 0  0.68 0.16 0  0.7 0.16 0  0.72 0.16 0  0.74 0.16 0  0.76 0.16 0  0.78 0.16 0  0.8 0.16 0  0.82 0.16 0  0.84 0.16 0  0.86 0.16 0  0.88 0.16 0  0.9 0.16 0  0.92 0.16 0  0.9399999999999999 0.16 0  0.96 0.16 0  0.98 0.16 0  1 0.16 0  0 0.18 0  0.02 0.18 0  0.04 0.18 0  0.06 0.18 0  0.08 0.18 0  0.1 0.18 0  0.12 0.18 0  0.14 0.18 0  0.16 0.18 0  0.18 0.18 0  0.2 0.18 0  0.22 0.18 0  0.24 0.18 0  0.26 0.18 0  0.28 0.18 0  0.3 0.18 0  0.32 0.18 0  0.34 0.18 0  0.36 0.18 0  0.38 0.18 0  0.4 0.18 0  0.42 0.18 0  0.44 0.18 0  0.46 0.18 0  0.48 0.18 0  0.5 0.18 0  0.52 0.18 0  0.54 0.18 0  0.5600000000000001 0.18 0  0.58 0.18 0  0.6 0.18 0  0.62 0.18 0  0.64 0.18 0  0.66 0.18 0  0.68 0.18 0  0.7 0.18 0  0.72 0.18 0  0.74 0.18 0  0.76 0.18 0  0.78 0.18 0  0.8 0.18 0  0.82 0.18 0  0.84 0.18 0  0.86 0.18 0  0.88 0.18 0  0.9 0.18 0  0.92 0.18 0  0.9399999999999999 0.18 0  0.96 0.18 0  0.98 0.18 0  1 0.18 0  0 0.2 0  0.02 0.2 0  0.04 0.2 0  0.06 0.2 0  0.08 0.2 0  0.1 0.2 0  0.12 0.2 0  0.14 0.2 0  0.16 0.2 0  0.18 0.2 0  0.2 0.2 0  0.22 0.2 0  0.24 0.2 0  0.26 0.2 0  0.28 0.2 0  0.3 0.2 0  0.32 0.2 0  0.34 0.2 0  0.36 0.2 0  0.38 0.2 0  0.4 0.2 0  0.42 0.2 0  0.44 0.2 0  0.46 0.2 0  0.48 0.2 0  0.5 0.2 0  0.52 0.2 0  0.54 0.2 0  0.5600000000000001 0.2 0  0.58 0.2 0  0.6 0.2 0  0.62 0.2 0  0.64 0.2 0  0.66 0.2 0  0.68 0.2 0  0.7 0.2 0  0.72 0.2 0  0.74 0.2 0  0.76 0.2 0  0.78 0.2 0  0.8 0.2 0  0.82 0.2 0  0.84 0.2 0  0.86 0.2 0  0.88 0.2 0  0.9 0.2 0  0.92 0.2 0  0.9399999999999999 0.2 0  0.96 0.2 0  0.98 0.2 0  1 0.2 0  0.01 0.01 0  0.03 0.01 0  0.05 0.01 0  0.07000000000000001 0.01 0  0.09 0.01 0  0.11 0.01 0  0.13 0.01 0  0.15 0.01 0  0.17 0.01 0  0.19 0.01 0  0.21 0.01 0  0.23 0.01 0  0.25 0.01 0  0.27 0.01 0  0.29 0.01 0  0.31 0.01 0  0.33 0.01 0  0.35 0.01 0  0.37 0.01 0  0.39 0.01 0  0.41 0.01 0  0.43 0.01 0  0.45 0.01 0  0.47 0.01 0  0.49 0.01 0  0.51 0.01 0  0.53 0.01 0  0.55 0.01 0  0.57 0.01 0  0.59 0.01 0  0.61 0.01 0  0.63 0.01 0  0.65 0.01 0  0.67 0.01 0  0.6899999999999999 0.01 0  0.71 0.01 0  0.73 0.01 0  0.75 0.01 0  0.77 0.01 0  0.79 0.01 0  0.8100000000000001 0.01 0  0.83 0.01 0  0.85 0.01 0  0.87 0.01 0  0.89 0.01 0  0.91 0.01 0  0.93 0.01 0  0.95 0.01 0  0.97 0.01 0  0.99 0.01 0  0.01 0.03000000000000001 0  0.03 0.03000000000000001 0  0.05 0.03000000000000001 0  0.07000000000000001 0.03000000000000001 0  0.09 0.03000000000000001 0  0.11 0.03000000000000001 0  0.13 0.03000000000000001 0  0.15 0.03000000000000001 0  0.17 0.03000000000000001 0  0.19 0.03000000000000001 0  0.21 0.03000000000000001 0  0.23 0.03000000000000001 0  0.25 0.03000000000000001 0  0.27 0.03000000000000001 0  0.29 0.03000000000000001 0  0.31 0.03000000000000001 0  0.33 0.03000000000000001 0  0.35 0.03000000000000001 0  0.37 0.03000000000000001 0  0.39 0.03000000000000001 0  0.41 0.03000000000000001 0  0.43 0.03000000000000001 0  0.45 0.03000000000000001 0  0.47 0.03000000000000001 0  0.49 0.03000000000000001 0  0.51 0.03000000000000001 0  0.53 0.03000000000000001 0  0.55 0.03000000000000001 0  0.57 0.03000000000000001 0  0.59 0.03000000000000001 0  0.61 0.03000000000000001 0  0.63 0.03000000000000001 0  0.65 0.03000000000000001 0  0.67 0.03000000000000001 0  0.6899999999999999 0.03000000000000001 0  0.71 0.03000000000000001 0  0.73 0.03000000000000001 0  0.75 0.03000000000000001 0  0.77 0.03000000000000001 0  0.79 0.0300000000000
[...]
<PointData  Scalars="concentration"> 
<DataArray  type="Float64"  Name="concentration"  format="ascii">0.0000000000000000e+00  0.0000000000000000e+00  0.0000000000000000e+00  0.0000000000000000e+00  0.0000000000000000e+00  0.0000000000000000e+00  0.0000000000000000e+00  0.0000000000000000e+00  0.0000000000000000e+00  0.0000000000000000e+00  0.0000000000000000e+00  0.0000000000000000e+00  0.0000000000000000e+00  0.0000000000000000e+00  0.0000000000000000e+00  0.0000000000000000e+00  0.0000000000000000e+00  0.0000000000000000e+00  0.0000000000000000e+00  0.0000000000000000e+00  0.0000000000000000e+00  0.0000000000000000e+00  0.0000000000000000e+00  0.0000000000000000e+00  0.0000000000000000e+00  0.0000000000000000e+00  0.0000000000000000e+00  0.0000000000000000e+00  0.0000000000000000e+00  0.0000000000000000e+00  0.0000000000000000e+00  0.0000000000000000e+00  0.0000000000000000e+00  0.0000000000000000e+00  0.0000000000000000e+00  0.0000000000000000e+00  0.0000000000000000e+00  0.0000000000000000e+00  0.0000000000000000e+00  0.0000000000000000e+00  0.0000000000000000e+00  0.0000000000000000e+00  0.0000000000000000e+00  0.0000000000000000e+00  0.0000000000000000e+00  0.0000000000000000e+00  0.0000000000000000e+00  0.0000000000000000e+00  0.0000000000000000e+00  0.0000000000000000e+00  0.0000000000000000e+00  3.0901699437494740e-01  2.9689842525271437e-01  2.8525518346978157e-01  2.7406861870555860e-01  2.6332081295559129e-01  2.5299455173251223e-01  2.4307329640317701e-01  2.3354115761686303e-01  2.2438286978122493e-01  2.1558376654443731e-01  2.0712975724363414e-01  1.9900730428134533e-01  1.9120340139317130e-01  1.8370555277140938e-01  1.7650175301075291e-01  1.6958046784354308e-01  1.6293061563334868e-01  1.5654154959689826e-01  1.5040304072558197e-01  1.4450526137888778e-01  1.3883876952323873e-01  1.3339449359075237e-01  1.2816371793345596e-01  1.2313806884946574e-01  1.1830950115856979e-01  1.1367028530554911e-01  1.0921299497043367e-01  1.0493049516571225e-01  1.0081593080130832e-01  9.6862715698894444e-02  9.3064522037846320e-02  8.9415270215839351e-02  8.5909119107762319e-02  8.2540456707268339e-02  7.9303891135903540e-02  7.6194242005349064e-02  7.3206532118882672e-02  7.0335979498715881e-02  6.7577989726388954e-02  6.4928148583911563e-02  6.2382214983823354e-02  5.9936114176814853e-02  5.7585931225996971e-02  5.5327904737338528e-02  5.3158420836221396e-02  5.1074007380880353e-02  4.9071328414190624e-02  4.7147179108404894e-02  4.5298487652416508e-02  4.3522482340783458e-02  4.1820902458660263e-02  5.8778525229247314e-01  5.6473436402872723e-01  5.4258760209181056e-01  5.2130949146386651e-01  5.0086595007510482e-01  4.8122423402475417e-01  4.6235288496316929e-01  4.4422167954926228e-01  4.2680158090088172e-01  4.1006469195908035e-01  3.9398421069038309e-01  3.7853438705421161e-01  3.6369048166554663e-01  3.4942872608570402e-01  3.3572628467678856e-01  3.2256121795796477e-01  3.0991244740415447e-01  2.9775972163014197e-01  2.8608358390534022e-01  2.7486534094665116e-01  2.6408703293895419e-01  2.5373140473475420e-01  2.4378187818645458e-01  2.3422252556657125e-01  2.2503804403297364e-01  2.1621373109794326e-01  2.0773546106148147e-01  1.9958966237085540e-01  1.9176329586989113e-01  1.8424383390295693e-01  1.7701924023997531e-01  1.7007795079013185e-01  1.6340885507322764e-01  1.5700127841885103e-01  1.5084496486472498e-01  1.4493006072671430e-01  1.3924709881406760e-01  1.3378698326451210e-01  1.2854097497481828e-01  1.2350067760341810e-01  1.1865802412258067e-01  1.1400526389854017e-01  1.0953495027881789e-01  1.0523992866680658e-01  1.0111332506449683e-01  9.7148535065786010e-02  9.3339213303150981e-02  8.9679263831966380e-02  8.6162843720292523e-02  8.2784680871085675e-02  7.9548083601305705e-02  8.0901699437494756e-01  7.7729016851792654e-01  7.4680776579097541e-01  7.1752095902088775e-01  6.8938283826299207e-01  6.6234833540426075e-01  6.3637415174099476e-01  6.1141868841294400e-01  5.8744197958048838e-01  5.6440562823605911e-01  5.4227274454534913e-01  5.2100788661805464e-01  5.0057700361191138e-01  4.8094738107763724e-01  4.6208758845609044e-01  4.4396742864250438e-01  4.2655788953605156e-01  4.0983109749625701e-01  3.9376027263090818e-01  3.7831968584311554e-01  3.6348461756805206e-01  3.4923131813266961e-01  3.3553696967434193e-01  3.2237964955692594e-01  3.0973829522518065e-01  2.9759267044082516e-01  2.8592333284576649e-01  2.7471160280019113e-01  2.6393953344528259e-01  2.5358988194232357e-01  2.4364608184184516e-01  2.3409221653832349e-01  2.2491299376768464e-01  2.1609372110656763e-01  2.0762028243391700e-01  1.9947911531703882e-01  1.9165718928574571e-01  1.8414198495965398e-01  1.7692147399507743e-01  1.6998409981928378e-01  1.6331875912115248e-01  1.5691478406849566e-01  1.5076192522347387e-01  1.4485033512866849e-01  1.3917055253749816e-01  1.3371348726480772e-01  1.2847040566145951e-01  1.2343291737948293e-01  1.1859298031299381e-01  1.1394333804293813e-01  1.0948854407696663e-01  9.5105651629515353e-01  9.1375939561353625e-01  8.7792518205885273e-01  8.4349647584645948e-01  8.1041813102902749e-01  7.7863716686218609e-01  7.4810268266697810e-01  7.1876577605027048e-01  6.9057946434981410e-01  6.6349860917604753e-01  6.3747984392783952e-01  6.1248150416432257e-01  5.8846356071967498e-01  5.6538755545224617e-01  5.4321653952376681e-01  5.2191501410854957e-01  5.0144887343658562e-01  4.8178535007827683e-01  4.6289296238222244e-01  4.4474146398100955e-01  4.2730179528334089e-01  4.1054603687408792e-01  3.9444736474696979e-01  3.7898000729755332e-01  3.6411920400714654e-01  3.4984116575090229e-01  3.3612303666610704e-01  3.2294285751915974e-01  3.1027953051218593e-01  2.9811278547257414e-01  2.8642314737096286e-01  2.7519190511536529e-01  2.6440108157118775e-01  2.5403340475888619e-01  2.4407228018290872e-01  2.3450176424740993e-01  2.2530653871597650e-01  2.1647188617429389e-01  2.0798366645630559e-01  1.9982829399597324e-01  1.9199271606824037e-01  1.8446439188423921e-01  1.7723127250715703e-01  1.7028178155650731e-01  1.6360479666987235e-01  1.5718963169370270e-01  1.5102601960767453e-01  1.4510409696619067e-01  1.3941440970677865e-01  1.3394842739722979e-01  1.2871150300683076e-01  1.0000000000000000e+00  9.6078348653042345e-01  9.2310516464238734e-01  8.8690468063065786e-01  8.5212405061480057e-01  8.1870756734349670e-01  7.8660171067563511e-01  7.5575506159216133e-01  7.2611821959852652e-01  6.9764372338324354e-01  6.7028597460342942e-01  6.4400116467341806e-01  6.1874720443747988e-01  5.9448365661245539e-01  5.7117167089067422e-01  5.4877392159792193e-01  5.2725454780540559e-01  5.0657909579871707e-01  4.8671446381065187e-01  4.6762884892845519e-01  4.4929169608962594e-01  4.3167364908383399e-01  4.1474650348177161e-01  3.9848316141491985e-01  3.8285758813322135e-01  3.6784477027055179e-01  3.5342067575066544e-01  3.3956221526895736e-01  3.2624720528794804e-01  3.1345433248685800e-01  3.0116311960799741e-01  2.8935389264496797e-01  2.7800774931984451e-01  2.6710652879859831e-01  2.5663278259602651e-01  2.4656974662337922e-01  2.3690131433372572e-01  2.2761201092187591e-01  2.1868696853737687e-01  2.1011190247074427e-01  2.0187308827465811e-01  1.9395733978336144e-01  1.8635198799495375e-01  1.7904486078265985e-01  1.7202426340255339e-01  1.6527895976785459e-01  1.5879815449453755e-01  1.5257147654215597e-01  1.4658898532115450e-01  1.4084171140430921e-01  1.3533528323661270e-01  9.5105651629515342e-01  9.1375939561353636e-01  8.7792518205885262e-01  8.4349647584645904e-01  8.1041813102902704e-01  7.7863716686218531e-01  7.4810268266697799e-01  7.1876577605027003e-01  6.9057946434981388e-01  6.6349860917604730e-01  6.3747984392783930e-01  6.1248150416432223e-01  5.8846356071967498e-01  5.6538755545224606e-01  5.4321653952376658e-01  5.2191501410854935e-01  5.0144887343658540e-01  4.8178535007827650e-01  4.6289296238222216e-01  4.4474146398100911e-01  4.2730179528334056e-01  4.1054603687408775e-01  3.9444736474696956e-01  3.7898000729755299e-01  3.6411920400714615e-01  3.4984116575090202e-01  3.3612303666610688e-01  3.2294285751915952e-01  3.1027953051218571e-01  2.9811278547257392e-01  2.8642314737096258e-01  2.7519190511536501e-01  2.6440108157118752e-01  2.5403340475888597e-01  2.4407228018290847e-01  2.3450176424740959e-01  2.2530653871597625e-01  2.1647188617429372e-01  2.0798366645630534e-01  1.9982829399597307e-01  1.9199271606824028e-01  1.8446439188423908e-01  1.7723127250715695e-01  1.7028178155650719e-01  1.6360479666987224e-01  1.5718963169370254e-01  1.5102601960767442e-01  1.4510409696619056e-01  1.3941440970677854e-01  1.3394842739722965e-01  1.2871150300683076e-01  8.0901699437494745e-01  7.7729016851792609e-01  7.4680776579097463e-01  7.1752095902088719e-01  6.8938283826299152e-01  6.6234833540426052e-01  6.3637415174099465e-01  6.1141868841294345e-01  5.8744197958048805e-01  5.6440562823605889e-01  5.4227274454534846e-01  5.2100788661805419e-01  5.0057700361191104e-01  4.8094738107763674e-01  4.6208758845608972e-01  4.4396742864250360e-01  4.2655788953605106e-01  4.0983109749625651e-01  3.9376027263090763e-01  3.7831968584311498e-01  3.6348461756805156e-01  3.4923131813266911e-01  3.3553696967434143e-01  3.2237964955692555e-01  3.0973829522518015e-01  2.9759267044082466e-01  2.8592333284576610e-01  2.7471160280019064e-01  2.6393953344528209e-01  2.5358988194232313e-01  2.4364608184184472e-01  2.3409221653832304e-01  2.2491299376768425e-01  2.1609372110656722e-01  2.0762028243391661e-01  1.9947911531703852e-01  1.9165718928574535e-01  1.8414198495965362e-01  1.7692147399507710e-01  1.6998409981928350e-01  1.6331875912115215e-01  1.5691478406849538e-01  1.5076192522347365e-01  1.4485033512866827e-01  1.3917055253749785e-01  1.3371348726480742e-01  1.2847040566145923e-01  1.2343291737948270e-01  1.1859298031299358e-01  1.1394333804293788e-01  1.0948854407696662e-01  5.8778525229247325e-01  5.6473436402872723e-01  5.4258760209181067e-01  5.2130949146386651e-01  5.0086595007510482e-01  4.8122423402475428e-01  4.6235288496316934e-01  4.4422167954926217e-01  4.2680158090088149e-01  4.1006469195908024e-01  3.9398421069038309e-01  3.7853438705421155e-01  3.6369048166554652e-01  3.4942872608570369e-01  3.3572628467678828e-01  3.2256121795796439e-01  3.0991244740415397e-01  2.9775972163014169e-01  2.8608358390533978e-01  2.7486534094665083e-01  2.6408703293895402e-01  2.5373140473475386e-01  2.4378187818645419e-01  2.3422252556657094e-01  2.2503804403297334e-01  2.1621373109794309e-01  2.0773546106148116e-01  1.9958966237085515e-01  1.9176329586989077e-01  1.8424383390295654e-01  1.7701924023997498e-01  1.7007795079013158e-01  1.6340885507322730e-01  1.5700127841885078e-01  1.5084496486472479e-01  1.4493006072671405e-01  1.3924709881406741e-01  1.3378698326451186e-01  1.2854097497481803e-01  1.2350067760341782e-01  1.1865802412258046e-01  1.1400526389853992e-01  1.0953495027881768e-01  1.0523992866680634e-01  1.0111332506449658e-01  9.7148535065785815e-02  9.3339213303150786e-02  8.9679263831966213e-02  8.6162843720292343e-02  8.2784680871085523e-02  7.9548083601305719e-02  3.0901699437494751e-01  2.9689842525271454e-01  2.8525518346978179e-01  2.7406861870555882e-01  2.6332081295559145e-01  2.5299455173251245e-01  2.4307329640317710e-01  2.3354115761686328e-01  2.2438286978122501e-01  2.1558376654443739e-01  2.0712975724363433e-01  1.9900730428134539e-01  1.9120340139317141e-01  1.8370555277140938e-01  1.7650175301075288e-01  1.6958046784354297e-01  1.6293061563334851e-01  1.5654154959689814e-01  1.5040304072558192e-01  1.4450526137888769e-01  1.3883876952323865e-01  1.3339449359075228e-01  1.2816371793345582e-01  1.2313806884946564e-01  1.1830950115856971e-01  1.1367028530554901e-01  1.0921299497043357e-01  1.0493049516571215e-01  1.0081593080130823e-01  9.6862715698894333e-02  9.3064522037846209e-02  8.9415270215839213e-02  8.5909119107762194e-02  8.2540456707268228e-02  7.9303891135903443e-02  7.6194242005348994e-02  7.3206532118882617e-02  7.0335979498715812e-02  6.7577989726388885e-02  6.4928148583911480e-02  6.2382214983823236e-02  5.9936114176814763e-02  5.7585931225996881e-02  5.5327904737338444e-02  5.3158420836221312e-02  5.1074007380880276e-02  4.9071328414190533e-02  4.7147179108404831e-02  4.5298487652416439e-02  4.3522482340783382e-02  4.1820902458660277e-02  1.2246467991473532e-16  1.1766277113124734e-16  1.1304914788429927e-16  1.0861642739240395e-16  1.0435751635707684e-16  1.0026559961204525e-16  9.6334129217528363e-17  9.2556813982136497e-17  8.8927609395622830e-17  8.5440707956377318e-17  8.2090529878185218e-17  7.8871714161378611e-17  7.5779110014093292e-17  7.2807768609902902e-17  6.9952935168640721e-17  6.7210041347737146e-17  6.4574697931896821e-17  6.2042687809417837e-17  5.9609959223913246e-17  5.7272619290636467e-17  5.5026927767035132e-17  5.2869291067565095e-17  5.0796256513186792e-17  4.8804506806342281e-17  4.6890854722571347e-17  4.5052238010272388e-17  4.3285714490446587e-17  4.1588457348583759e-17  3.9957750611156106e-17  3.8390984799481081e-17  3.6885652753998796e-17  3.5439345622281841e-17  3.4049749004357514e-17  3.2714639249174025e-17  3.1431879896284494e-17  3.0199418257054369e-17  2.9015282129921696e-17  2.7877576644453892e-17  2.6784481229150756e-17  2.5734246698141681e-17  2.4725192452115070e-17  2.3755703789000898e-17  2.2824229320102892e-17  2.1929278487545669e-17  2.1069419179064111e-17  2.0243275436318208e-17  1.9449525253066168e-17  1.8686898459672398e-17  1.7954174690565055e-17  1.7250181431390835e-17  1.6573792142741818e-17  1.5271245485307311e-01  1.4672362526194149e-01  1.4096969419751385e-01  1.3544144513340603e-01  1.3013002342432450e-01  1.2502692207567534e-01  1.2012396807451660e-01  1.1541330925956630e-01  1.1088740170887643e-01  1.0653899762463984e-01  1.0236113369542607e-01  9.8347119916927309e-02  9.4490528853056407e-02  9.0785185319966488e-02  8.7225156476255727e-02  8.3804742303292670e-02  8.0518466460236429e-02  7.7361067498943781e-02  7.4327490424543272e-02  7.1412878588023837e-02  6.8612565897729696e-02  6.5922069337173164e-02  6.3337081777078183e-02  6.0853465070048275e-02  5.8467243416712153e-02  5.6174596992643454e-02  5.3971855825775704e-02  5.1855493914440255e-02  4.9822123576547243e-02  4.7868490020804094e-02  4.5991466131227191e-02  4.4188047456548203e-02  4.2455347396448566e-02  4.0790592576874965e-02  3.9191118406994283e-02  3.7654364810641335e-02  3.6177872125394049e-02  3.4759277162682636e-02  3.3396309422599170e-02  3.2086787457323789e-02  3.0828615377324158e-02  2.9619779494714987e-02  2.8458345098385858e-02  2.7342453355721445e-02  2.6270318336017347e-02  2.5240224152735139e-02  2.4250522267125766e-02  2.3299630103561089e-02  2.2386059271363987e-02  2.1509166902797024e-02  4.4318880546796263e-01  4.2580854506157700e-01  4.0910998673087506e-01  3.9306638307452263e-01  3.7765203691101407e-01  3.6284225998047026e-01  3.4861333327551652e-01  3.3494246893656310e-01  3.2180777364940694e-01  3.0918821348557496e-01  2.9706358012821499e-01  2.8541445842863650e-01  2.7422219524080538e-01  2.6346886948320086e-01  2.5313726337947062e-01  2.4321083483125788e-01  2.3367369087843765e-01  2.2451056220378326e-01  2.1570677864079829e-01  2.0724824564509323e-01  1.9912142169126265e-01  1.9131329655873211e-01  1.8381137047149665e-01  1.7660363405806617e-01  1.6967854909927016e-01  1.6302503003285881e-01  1.5663242618506873e-01  1.5049050470050440e-01  1.4458943414282260e-01  1.3891976873979467e-01  1.3347243324737015e-01  1.2823870840836749e-01  1.2321021698238233e-01  1.1837891032443024e-01  1.1373705549072798e-01  1.0927722285087209e-01  1.0499227418649162e-01  1.0087535125723988e-01  9.6919864815743537e-02  9.3119484053854590e-02  8.9468126463246395e-02  8.5959948094063487e-02  8.2589334195978067e-02  7.9350890226631776e-02  7.6239433213252036e-02  7.3249983459153262e-02  7.0377756718547124e-02  6.7618160178078063e-02  6.4966874359764490e-02  6.2422033588767328e-02  6.9028274792566868e-01  6.6321235768800102e-01  6.3720374332613139e-01  6.1221524478577771e-01  5.8820683776839122e-01  5.6514006940769734e-01  5.4297799648359146e-01  5.2168512607264417e-01  5.0122735853853195e-01  4.8157193276958649e-01  4.6268737357438650e-01  4.4454344114988653e-01  4.2711108254000318e-01  4.1036238500586464e-01  3.9427053123208050e-01  3.7880975629641150e-01  3.6395530633311851e-01  3.4968339882304905e-01  3.3597118444619156e-01  3.2279671043498531e-01  3.1013888536913120e-01  2.9797744535500542e-01  2.8629292153504066e-01  2.7506660887460871e-01  2.6428053617602387e-01  2.5391743727128346e-01  2.4396072334708277e-01  2.3439445635748202e-01  2.2520332348137351e-01  2.1637261258359081e-01  2.0788818864013534e-01  1.9973647108955569e-01  1.9190441207402037e-01  1.8437947553506304e-01  1.7714961713036637e-01  1.7020326493927773e-01  1.6352930092602658e-01  1.5711704313083838e-01  1.5095622856031735e-01  1.4503699674959825e-01  1.3934987396985449e-01  1.3388575805578948e-01  1.2863590382874029e-01  1.2359190909199765e-01  1.1874570117620764e-01  1.1408952402194471e-01  1.0961592599169272e-01  1.0531775361094010e-01  1.0118827913500109e-01  9.7224596707187208e-02  8.6980700553370172e-01  8.3569632387171366e-01  8.0292355786508829e-01  7.7143621278297025e-01  7.4118385506697526e-01  7.1211803127890194e-01  6.8419219024569689e-01  6.5736160827473111e-01  6.3158331731754924e-01  6.0681603596515854e-01  5.8302010316260566e-01  5.6015741453510492e-01  5.3819136122228906e-01  5.1708677112129542e-01  4.9680985244337322e-01  4.7732813949250447e-01  4.5861044057818451e-01  4.4062678797801241e-01  4.2334838986910445e-01  4.0674758415057188e-01  3.9079779408239307e-01  3.7547348566898969e-01  3.6075012671865830e-01  3.4660414751274771e-01  3.3301290302109887e-01  3.1995463660278117e-01  3.0740844513357568e-01  2.9535424550398204e-01  2.8377274243374856e-01  2.7264539755106676e-01  2.6195439968662337e-01  2.5168263633467353e-01  2.4181366623519249e-01  2.3233169303297882e-01  2.2322153997132499e-01  2.1446862557954899e-01  2.0605894031528571e-01  1.9797902412398119e-01  1.9021594487951718e-01  1.8275727767131425e-01  1.7559108490463063e-01  1.6870589718208637e-01  1.6209069493570222e-01  1.5573489077997338e-01  1.4962831255808665e-01  1.4376118706501265e-01  1.3812412468970620e-01  1.3270811152842596e-01  1.2750467012830691e-01  1.2251013889631011e-01  9.6418849313833443e-01  9.2637651123619624e-01  8.9004762026283035e-01  8.5514362936081889e-01  8.2160863250002758e-01  7.8938891863045368e-01  7.5843288537925513e-01  7.2869095615124579e-01  7.0011550049779769e-01  6.7266075762453015e-01  6.4628276291335096e-01  6.2093927733942744e-01  5.9658971966843044e-01  5.7319510132399243e-01  5.5071796381972704e-01  5.2912231865436521e-01  5.0837358957262890e-01  4.8843855709833417e-01  4.6928530524995432e-01  4.5088317035243985e-01  4.3320269186253163e-01  4.1621556512808977e-01  3.9989459600512400e-01  3.8421365725924173e-01  3.6914764668114042e-01  3.5467244684856236e-01  3.4076488646981390e-01  3.2740270324651921e-01  3.1456450819575199e-01  3.0222975137405866e-01  2.9037868894816121e-01  2.7899235155931346e-01  2.6805251393038193e-01  2.5754166566673653e-01  2.4744298320396890e-01  2.3774030285731321e-01  2.2841809492942650e-01  2.1946143883489697e-01  2.1085599920149176e-01  2.0258800290973411e-01  1.9464421703391460e-01  1.8701192764909735e-01  1.7967891947007858e-01  1.7263345628961774e-01  1.6586426218502487e-01  1.5936050347506892e-01  1.5311177169572601e-01  1.4710807485772687e-01  1.4134001563217949e-01  1.3580353511193291e-01  9.6418849313833466e-01  9.2637651123619624e-01  8.9004762026283057e-01  8.5514362936081867e-01  8.2160863250002703e-01  7.8938891863045335e-01  7.5843288537925524e-01  7.2869095615124568e-01  7.0011550049779780e-01  6.7266075762453015e-01  6.4628276291335096e-01  6.2093927733942744e-01  5.9658971966843044e-01  5.7319510132399243e-01  5.5071796381972682e-01  5.2912231865436521e-01  5.0837358957262879e-01  4.8843855709833406e-01  4