<?xml version="1.0"?>
<VTKFile type="UnstructuredGrid"  version="0.1"  >
<UnstructuredGrid>
<Piece  NumberOfPoints="20054" NumberOfCells="39478">
<Points>
<DataArray  type="Float64"  NumberOfComponents="3"  format="ascii">1 0 0  0.9997998037428526 0.02000880895389431 0  0.9991992951284931 0.04000960653046352 0  0.9981987145960756 0.05999438456007805 0  0.9967984627705549 0.07995514128721501 0  0.9949991003022806 0.09988388457430118 0  0.9928013476425149 0.1197726351017051 0  0.9902060847549715 0.139613429562597 0  0.987214350763483 0.1593983238513969 0  0.9838273435359444 0.1791193962445356 0  0.9800464192046954 0.198768750572253 0  0.9758730916235354 0.2183385193801655 0  0.9713090317615876 0.237820867079336 0  0.9663560670342555 0.2572079930835849 0  0.9610161805715396 0.2764921349327862 0  0.9552915104240066 0.2956655714008991 0  0.9491843487067304 0.3147206255874884 0  0.9426971406815462 0.3336496679914983 0  0.9358324837779861 0.3524451195660473 0  0.9285931265532873 0.3710994547530225 0  0.9209819675918909 0.3896052044962556 0  0.9130020543448703 0.4079549592320781 0  0.9046565819097542 0.4261413718560547 0  0.8959488917512338 0.4441571606647087 0  0.8868824703632656 0.4619951122710622 0  0.8774609478731046 0.4796480844928215 0  0.8676880965878291 0.4971090092120542 0  0.8575678294839372 0.5143708952052096 0  0.8471041986406199 0.5314268309423539 0  0.8363013936173391 0.5482699873544935 0  0.8251637397763597 0.5648936205678837 0  0.8136956965509062 0.5812910746042258 0  0.8019018556596399 0.5974557840456699 0  0.7897869392681683 0.6133812766635599 0  0.777355798098326 0.6290611760098652 0  0.7646134094859813 0.6444892039702628 0  0.7515648753881492 0.6596591832778468 0  0.7382154203402046 0.6745650399864606 0  0.7245703893640189 0.6892008059026586 0  0.7106352458278521 0.7035606209753273 0  0.6964155692588616 0.7176387356420051 0  0.6819170531091018 0.7314295131309636 0  0.6671455024759069 0.7449274317181303 0  0.6521068317775753 0.7581270869379442 0  0.6368070623852795 0.7710231937472638 0  0.6212523202121545 0.7836105886414595 0  0.6054488332605282 0.795884231721841 0  0.5894029291282759 0.8078392087135958 0  0.5731210324752972 0.8194707329334278 0  0.5566096624511305 0.8307741472061095 0  0.5398754300847343 0.8417449257291802 0  0.5229250356374803 0.8523786758850435 0  0.5057652659204196 0.8626711399997378 0  0.4884029915768944 0.8726181970476778 0  0.4708451643315825 0.8822158643016828 0  0.45309881420708 0.8914602989276292 0  0.4351710467091336 0.9003477995230937 0  0.4170690399816468 0.9088748075993677 0  0.398800041932607 0.9170379090062476 0  0.3803713673320772 0.9248338352990368 0  0.3617903948834157 0.9322594650472057 0  0.3430645642688987 0.9393118250841893 0  0.3242013731709288 0.9459880916978206 0  0.3052083742700172 0.952285591760924 0  0.2860931722207478 0.9582018038016155 0  0.2668634206069304 0.963734359012881 0  0.2475268188771628 0.9688810422010291 0  0.2280911092620296 0.9736397926726377 0  0.2085640736741707 0.9780087050596407 0  0.1889535305924618 0.9819860300822225 0  0.1692673319315541 0.9855701752492174 0  0.1495133598980264 0.9887597054957302 0  0.1296995238344084 0.9915533437577263 0  0.1098337570523395 0.9939499714833577 0  0.08992401365612977 0.9959486290808237 0  0.06997826535799723 0.9975485163025836 0  0.05000449828625179 0.9987489925657699 0  0.03001070978771124 0.9995495772086734 0  0.01000490522562346 0.9999499496831961 0  -0.01000490522562333 0.9999499496831961 0  -0.03001070978771133 0.9995495772086734 0  -0.05000449828625144 0.9987489925657699 0  -0.06997826535799688 0.9975485163025836 0  -0.08992401365612987 0.9959486290808237 0  -0.1098337570523394 0.9939499714833577 0  -0.1296995238344082 0.9915533437577263 0  -0.1495133598980262 0.9887597054957303 0  -0.1692673319315537 0.9855701752492174 0  -0.1889535305924614 0.9819860300822226 0  -0.2085640736741705 0.9780087050596407 0  -0.2280911092620295 0.9736397926726377 0  -0.2475268188771627 0.9688810422010291 0  -0.2668634206069302 0.9637343590128811 0  -0.2860931722207475 0.9582018038016156 0  -0.3052083742700173 0.9522855917609239 0  -0.3242013731709289 0.9459880916978205 0  -0.3430645642688986 0.9393118250841894 0  -0.3617903948834154 0.9322594650472058 0  -0.380371367332077 0.924833835299037 0  -0.3988000419326071 0.9170379090062476 0  -0.4170690399816465 0.9088748075993678 0  -0.4351710467091335 0.9003477995230939 0  -0.4530988142070799 0.8914602989276292 0  -0.4708451643315824 0.8822158643016829 0  -0.4884029915768945 0.8726181970476778 0  -0.5057652659204197 0.8626711399997378 0  -0.5229250356374801 0.8523786758850437 0  -0.5398754300847342 0.8417449257291804 0  -0.5566096624511303 0.8307741472061098 0  -0.5731210324752971 0.8194707329334279 0  -0.589402929128276 0.8078392087135957 0  -0.6054488332605281 0.7958842317218411 0  -0.6212523202121542 0.7836105886414597 0  -0.6368070623852793 0.7710231937472639 0  -0.652106831777575 0.7581270869379444 0  -0.6671455024759069 0.7449274317181304 0  -0.6819170531091018 0.7314295131309636 0  -0.6964155692588616 0.7176387356420052 0  -0.7106352458278521 0.7035606209753273 0  -0.7245703893640187 0.6892008059026588 0  -0.7382154203402043 0.6745650399864608 0  -0.751564875388149 0.6596591832778469 0  -0.7646134094859813 0.6444892039702628 0  -0.7773557980983258 0.6290611760098654 0  -0.7897869392681683 0.6133812766635599 0  -0.8019018556596398 0.59745578404567 0  -0.8136956965509062 0.5812910746042258 0  -0.8251637397763595 0.5648936205678839 0  -0.836301393617339 0.5482699873544935 0  -0.8471041986406197 0.5314268309423542 0  -0.8575678294839372 0.5143708952052097 0  -0.8676880965878292 0.497109009212054 0  -0.8774609478731045 0.4796480844928216 0  -0.8868824703632656 0.4619951122710621 0  -0.8959488917512338 0.4441571606647088 0  -0.904656581909754 0.426141371856055 0  -0.9130020543448703 0.4079549592320783 0  -0.920981967591891 0.3896052044962555 0  -0.9285931265532872 0.3710994547530226 0  -0.9358324837779861 0.3524451195660473 0  -0.9426971406815462 0.3336496679914984 0  -0.9491843487067303 0.3147206255874888 0  -0.9552915104240065 0.2956655714008993 0  -0.9610161805715396 0.2764921349327862 0  -0.9663560670342555 0.2572079930835851 0  -0.9713090317615876 0.2378208670793361 0  -0.9758730916235353 0.2183385193801658 0  -0.9800464192046954 0.198768750572253 0  -0.9838273435359444 0.1791193962445354 0  -0.987214350763483 0.159398323851397 0  -0.9902060847549714 0.1396134295625972 0  -0.9928013476425149 0.1197726351017052 0  -0.9949991003022804 0.09988388457430147 0  -0.9967984627705549 0.07995514128721509 0  -0.9981987145960756 0.05999438456007793 0  -0.9991992951284931 0.04000960653046362 0  -0.9997998037428526 0.02000880895389464 0  -1 1.224646799147353e-16 0  -0.9997998037428526 -0.0200088089538944 0  -0.9991992951284931 -0.04000960653046338 0  -0.9981987145960756 -0.05999438456007812 0  -0.9967984627705549 -0.07995514128721484 0  -0.9949991003022806 -0.09988388457430078 0  -0.9928013476425149 -0.1197726351017049 0  -0.9902060847549715 -0.1396134295625965 0  -0.9872143507634831 -0.1593983238513963 0  -0.9838273435359444 -0.1791193962445356 0  -0.9800464192046953 -0.1987687505722532 0  -0.9758730916235354 -0.2183385193801655 0  -0.9713090317615876 -0.2378208670793363 0  -0.9663560670342556 -0.2572079930835848 0  -0.9610161805715396 -0.276492134932786 0  -0.9552915104240066 -0.2956655714008991 0  -0.9491843487067305 -0.3147206255874881 0  -0.9426971406815464 -0.3336496679914978 0  -0.9358324837779862 -0.3524451195660471 0  -0.9285931265532875 -0.371099454753022 0  -0.9209819675918909 -0.3896052044962557 0  -0.9130020543448704 -0.407954959232078 0  -0.9046565819097541 -0.4261413718560548 0  -0.8959488917512338 -0.4441571606647086 0  -0.8868824703632655 -0.4619951122710623 0  -0.8774609478731046 -0.4796480844928214 0  -0.8676880965878293 -0.4971090092120538 0  -0.8575678294839373 -0.5143708952052095 0  -0.84710419864062 -0.5314268309423537 0  -0.8363013936173395 -0.5482699873544929 0  -0.8251637397763596 -0.5648936205678838 0  -0.8136956965509061 -0.5812910746042259 0  -0.8019018556596399 -0.5974557840456699 0  -0.7897869392681682 -0.61338127666356 0  -0.777355798098326 -0.6290611760098652 0  -0.7646134094859816 -0.6444892039702625 0  -0.7515648753881492 -0.6596591832778468 0  -0.7382154203402048 -0.6745650399864603 0  -0.7245703893640192 -0.6892008059026583 0  -0.7106352458278522 -0.7035606209753272 0  -0.6964155692588621 -0.7176387356420046 0  -0.6819170531091017 -0.7314295131309637 0  -0.667145502475907 -0.7449274317181303 0  -0.6521068317775756 -0.758127086937944 0  -0.6368070623852792 -0.7710231937472641 0  -0.6212523202121544 -0.7836105886414596 0  -0.6054488332605283 -0.795884231721841 0  -0.5894029291282762 -0.8078392087135956 0  -0.5731210324752977 -0.8194707329334274 0  -0.5566096624511304 -0.8307741472061095 0  -0.5398754300847344 -0.8417449257291802 0  -0.5229250356374798 -0.8523786758850437 0  -0.5057652659204195 -0.8626711399997379 0  -0.4884029915768943 -0.872618197047678 0  -0.4708451643315825 -0.8822158643016828 0  -0.4530988142070805 -0.8914602989276289 0  -0.4351710467091333 -0.900347799523094 0  -0.4170690399816467 -0.9088748075993677 0  -0.3988000419326073 -0.9170379090062475 0  -0.3803713673320777 -0.9248338352990366 0  -0.3617903948834162 -0.9322594650472055 0  -0.3430645642688988 -0.9393118250841893 0  -0.3242013731709283 -0.9459880916978207 0  -0.3052083742700169 -0.9522855917609241 0  -0.2860931722207477 -0.9582018038016155 0  -0.2668634206069305 -0.963734359012881 0  -0.2475268188771631 -0.968881042201029 0  -0.2280911092620301 -0.9736397926726376 0  -0.2085640736741706 -0.9780087050596407 0  -0.1889535305924619 -0.9819860300822225 0  -0.1692673319315544 -0.9855701752492173 0  -0.1495133598980269 -0.9887597054957302 0  -0.1296995238344092 -0.9915533437577262 0  -0.1098337570523396 -0.9939499714833577 0  -0.08992401365612945 -0.9959486290808237 0  -0.06997826535799691 -0.9975485163025836 0  -0.05000449828625168 -0.9987489925657699 0  -0.030010709787
[...]
<PointData  Scalars="Displacement"> 
<DataArray  type="Float64"  Name="Displacement"  format="ascii">0.0000000000000000e+00  0.0000000000000000e+00  0.0000000000000000e+00  0.0000000000000000e+00  0.0000000000000000e+00  0.0000000000000000e+00  0.0000000000000000e+00  0.0000000000000000e+00  0.0000000000000000e+00  0.0000000000000000e+00  0.0000000000000000e+00  0.0000000000000000e+00  0.0000000000000000e+00  0.0000000000000000e+00  0.0000000000000000e+00  0.0000000000000000e+00  0.0000000000000000e+00  0.0000000000000000e+00  0.0000000000000000e+00  0.0000000000000000e+00  0.0000000000000000e+00  0.0000000000000000e+00  0.0000000000000000e+00  0.0000000000000000e+00  0.0000000000000000e+00  0.0000000000000000e+00  0.0000000000000000e+00  0.0000000000000000e+00  0.0000000000000000e+00  0.0000000000000000e+00  0.0000000000000000e+00  0.0000000000000000e+00  0.0000000000000000e+00  0.0000000000000000e+00  0.0000000000000000e+00  0.0000000000000000e+00  0.0000000000000000e+00  0.0000000000000000e+00  0.0000000000000000e+00  0.0000000000000000e+00  0.0000000000000000e+00  0.0000000000000000e+00  0.0000000000000000e+00  0.0000000000000000e+00  0.0000000000000000e+00  0.0000000000000000e+00  0.0000000000000000e+00  0.0000000000000000e+00  0.0000000000000000e+00  0.0000000000000000e+00  0.0000000000000000e+00  0.0000000000000000e+00  0.0000000000000000e+00  0.0000000000000000e+00  0.0000000000000000e+00  0.0000000000000000e+00  0.0000000000000000e+00  0.0000000000000000e+00  0.0000000000000000e+00  0.0000000000000000e+00  0.0000000000000000e+00  0.0000000000000000e+00  0.0000000000000000e+00  0.0000000000000000e+00  0.0000000000000000e+00  0.0000000000000000e+00  0.0000000000000000e+00  0.0000000000000000e+00  0.0000000000000000e+00  0.0000000000000000e+00  0.0000000000000000e+00  0.0000000000000000e+00  0.0000000000000000e+00  0.0000000000000000e+00  0.0000000000000000e+00  0.0000000000000000e+00  0.0000000000000000e+00  0.0000000000000000e+00  0.0000000000000000e+00  0.0000000000000000e+00  0.0000000000000000e+00  0.0000000000000000e+00  0.0000000000000000e+00  0.0000000000000000e+00  0.0000000000000000e+00  0.0000000000000000e+00  0.0000000000000000e+00  0.0000000000000000e+00  0.0000000000000000e+00  0.0000000000000000e+00  0.0000000000000000e+00  0.0000000000000000e+00  0.0000000000000000e+00  0.0000000000000000e+00  0.0000000000000000e+00  0.0000000000000000e+00  0.0000000000000000e+00  0.0000000000000000e+00  0.0000000000000000e+00  0.0000000000000000e+00  0.0000000000000000e+00  0.0000000000000000e+00  0.0000000000000000e+00  0.0000000000000000e+00  0.0000000000000000e+00  0.0000000000000000e+00  0.0000000000000000e+00  0.0000000000000000e+00  0.0000000000000000e+00  0.0000000000000000e+00  0.0000000000000000e+00  0.0000000000000000e+00  0.0000000000000000e+00  0.0000000000000000e+00  0.0000000000000000e+00  0.0000000000000000e+00  0.0000000000000000e+00  0.0000000000000000e+00  0.0000000000000000e+00  0.0000000000000000e+00  0.0000000000000000e+00  0.0000000000000000e+00  0.0000000000000000e+00  0.0000000000000000e+00  0.0000000000000000e+00  0.0000000000000000e+00  0.0000000000000000e+00  0.0000000000000000e+00  0.0000000000000000e+00  0.0000000000000000e+00  0.0000000000000000e+00  0.0000000000000000e+00  0.0000000000000000e+00  0.0000000000000000e+00  0.0000000000000000e+00  0.0000000000000000e+00  0.0000000000000000e+00  0.0000000000000000e+00  0.0000000000000000e+00  0.0000000000000000e+00  0.0000000000000000e+00  0.0000000000000000e+00  0.0000000000000000e+00  0.0000000000000000e+00  0.0000000000000000e+00  0.0000000000000000e+00  0.0000000000000000e+00  0.0000000000000000e+00  0.0000000000000000e+00  0.0000000000000000e+00  0.0000000000000000e+00  0.0000000000000000e+00  0.0000000000000000e+00  0.0000000000000000e+00  0.0000000000000000e+00  0.0000000000000000e+00  0.0000000000000000e+00  0.0000000000000000e+00  0.0000000000000000e+00  0.0000000000000000e+00  0.0000000000000000e+00  0.0000000000000000e+00  0.0000000000000000e+00  0.0000000000000000e+00  0.0000000000000000e+00  0.0000000000000000e+00  0.0000000000000000e+00  0.0000000000000000e+00  0.0000000000000000e+00  0.0000000000000000e+00  0.0000000000000000e+00  0.0000000000000000e+00  0.0000000000000000e+00  0.0000000000000000e+00  0.0000000000000000e+00  0.0000000000000000e+00  0.0000000000000000e+00  0.0000000000000000e+00  0.0000000000000000e+00  0.0000000000000000e+00  0.0000000000000000e+00  0.0000000000000000e+00  0.0000000000000000e+00  0.0000000000000000e+00  0.0000000000000000e+00  0.0000000000000000e+00  0.0000000000000000e+00  0.0000000000000000e+00  0.0000000000000000e+00  0.0000000000000000e+00  0.0000000000000000e+00  0.0000000000000000e+00  0.0000000000000000e+00  0.0000000000000000e+00  0.0000000000000000e+00  0.0000000000000000e+00  0.0000000000000000e+00  0.0000000000000000e+00  0.0000000000000000e+00  0.0000000000000000e+00  0.0000000000000000e+00  0.0000000000000000e+00  0.0000000000000000e+00  0.0000000000000000e+00  0.0000000000000000e+00  0.0000000000000000e+00  0.0000000000000000e+00  0.0000000000000000e+00  0.0000000000000000e+00  0.0000000000000000e+00  0.0000000000000000e+00  0.0000000000000000e+00  0.0000000000000000e+00  0.0000000000000000e+00  0.0000000000000000e+00  0.0000000000000000e+00  0.0000000000000000e+00  0.0000000000000000e+00  0.0000000000000000e+00  0.0000000000000000e+00  0.0000000000000000e+00  0.0000000000000000e+00  0.0000000000000000e+00  0.0000000000000000e+00  0.0000000000000000e+00  0.0000000000000000e+00  0.0000000000000000e+00  0.0000000000000000e+00  0.0000000000000000e+00  0.0000000000000000e+00  0.0000000000000000e+00  0.0000000000000000e+00  0.0000000000000000e+00  0.0000000000000000e+00  0.0000000000000000e+00  0.0000000000000000e+00  0.0000000000000000e+00  0.0000000000000000e+00  0.0000000000000000e+00  0.0000000000000000e+00  0.0000000000000000e+00  0.0000000000000000e+00  0.0000000000000000e+00  0.0000000000000000e+00  0.0000000000000000e+00  0.0000000000000000e+00  0.0000000000000000e+00  0.0000000000000000e+00  0.0000000000000000e+00  0.0000000000000000e+00  0.0000000000000000e+00  0.0000000000000000e+00  0.0000000000000000e+00  0.0000000000000000e+00  0.0000000000000000e+00  0.0000000000000000e+00  0.0000000000000000e+00  0.0000000000000000e+00  0.0000000000000000e+00  0.0000000000000000e+00  0.0000000000000000e+00  0.0000000000000000e+00  0.0000000000000000e+00  0.0000000000000000e+00  0.0000000000000000e+00  0.0000000000000000e+00  0.0000000000000000e+00  0.0000000000000000e+00  0.0000000000000000e+00  0.0000000000000000e+00  0.0000000000000000e+00  0.0000000000000000e+00  0.0000000000000000e+00  0.0000000000000000e+00  0.0000000000000000e+00  0.0000000000000000e+00  0.0000000000000000e+00  0.0000000000000000e+00  0.0000000000000000e+00  0.0000000000000000e+00  0.0000000000000000e+00  0.0000000000000000e+00  0.0000000000000000e+00  0.0000000000000000e+00  0.0000000000000000e+00  0.0000000000000000e+00  0.0000000000000000e+00  0.0000000000000000e+00  0.0000000000000000e+00  0.0000000000000000e+00  0.0000000000000000e+00  0.0000000000000000e+00  0.0000000000000000e+00  0.0000000000000000e+00  0.0000000000000000e+00  0.0000000000000000e+00  0.0000000000000000e+00  0.0000000000000000e+00  0.0000000000000000e+00  0.0000000000000000e+00  0.0000000000000000e+00  0.0000000000000000e+00  0.0000000000000000e+00  0.0000000000000000e+00  0.0000000000000000e+00  0.0000000000000000e+00  0.0000000000000000e+00  0.0000000000000000e+00  0.0000000000000000e+00  0.0000000000000000e+00  0.0000000000000000e+00  0.0000000000000000e+00  0.0000000000000000e+00  0.0000000000000000e+00  7.5163616483955309e-01  2.1565564764659605e-09  2.3907161262657032e-09  2.2380499811677239e-09  2.3524492261492684e-09  2.1240376425277604e-09  7.5845295647873078e-12  9.5634328614338221e-15  4.1729009586128404e-15  3.7988844507464412e-16  5.1386110416953352e-16  5.3421140275460932e-03  1.5537045017195190e-17  1.9498111787731856e-17  1.0704456415389809e-02  1.6941022849273183e-02  6.1202683396564470e-19  9.8383458515024702e-19  5.2026906966337040e-19  3.3054344348594932e-19  2.5762606469602339e-19  1.8416773053406732e-19  2.2267568567649063e-19  6.2455517813936961e-06  7.1847610197525553e-06  7.2466079133595179e-02  1.8271764125791464e-18  8.6759278015255649e-21  2.2208372531131206e-20  1.7222585698545598e-08  1.4177868594924333e-20  2.9009696355754080e-02  1.5624382091628677e-01  4.6206840852617374e-09  4.4018443399461283e-21  3.8629408132298399e-22  3.2039790257605833e-22  2.5507721476105142e-22  2.8978660801642584e-22  3.7988405834503300e-11  1.6319325658786220e-11  8.5768292980066978e-12  4.6438910822063718e-12  2.2285268919664400e-01  9.9618451802341306e-23  9.8723853451369943e-23  5.8450258932078885e-23  5.9459911101996878e-23  8.3086037936144556e-13  1.3442439277133943e-12  9.0021878755700063e-17  3.8803695831514333e-11  3.7347347640209005e-12  3.4758575789866066e-08  1.6121180296312895e-23  2.5884590287407028e-01  5.9608515201575992e-23  1.5606116613362950e-23  1.2991060199962856e-03  1.0404231555198895e-23  1.4020683716631919e-23  5.1019923913486022e-16  1.0981144640453802e-23  1.4930849886864628e-23  1.2706995398812627e-03  7.7734361746951169e-02  1.1343527696110786e-05  2.7417239570261779e-08  2.0407946017274699e-05  3.3890534388457044e-01  1.4356897642592362e-03  1.0559109402892702e-12  2.6088056193392339e-14  7.1144558577230249e-14  7.8155458019550159e-14  1.7012976336665806e-04  5.9846398766978067e-24  1.6168066791335222e-06  1.9173245254218928e-04  1.7541881537631434e-15  2.2502210137997231e-24  4.6398535629070022e-06  3.3991836948451569e-24  3.4269607478011284e-24  1.5219176793285160e-24  3.8371976093243698e-01  2.2989407131050631e-24  8.6938682078982253e-25  1.3500414649434716e-24  2.3559887811852083e-05  2.0744070082775068e-16  1.1722431503061407e-24  3.4027191663702704e-14  8.7682219532920206e-25  2.2555946337746853e-16  2.4143122632273700e-01  2.4111634649679553e-24  6.2747942794937772e-25  6.9135702202234600e-17  1.1948742642921027e-17  2.7460804104363385e-15  5.7788996037180101e-17  5.9331852997310040e-25  1.0743434629980614e-07  6.6987472245903898e-11  9.5287022654122190e-11  3.4738237841132775e-07  1.2345720414078671e-17  4.2830618154955308e-17  2.6354726996623976e-25  6.2675527545539556e-07  1.4722409852211444e-25  2.5868015608166892e-25  6.2068546177462496e-13  2.1681140407191260e-13  6.1671061909002063e-18  1.3902419479232932e-25  3.4072352776705042e-25  3.4712885190320735e-25  3.4122536972152895e-01  1.3340687255864836e-07  4.3544415705338401e-20  1.4484511474064127e-02  1.3583460094529947e-23  1.5106859881806874e-18  4.2987022975689297e-16  2.7032665321286143e-25  1.2360739272658135e-25  5.8181580161982561e-19  9.1528620170283909e-19  5.5892522353602618e-16  1.5609061826587089e-18  2.1014246624836575e-14  2.5140794015962766e-08  9.8096900636545676e-13  1.3117131158481490e-17  2.8141968335987185e-25  2.2778405670263832e-02  2.8480086694352528e-05  2.4532670819384030e-03  5.1110521524340735e-01  2.3811436126007782e-02  1.0742755565668628e-20  7.2251167785752977e-07  5.0953474756792690e-13  8.4779350457159776e-21  2.0638975068700040e-20  7.6146512059140740e-03  2.1681629393347165e-01  5.3714025774544563e-15  2.4540620528545943e-26  3.2450676979662723e-13  2.0372071682196573e-05  9.4920426895390793e-20  8.2312622133488818e-20  1.5452614876401390e-23  2.5372020748378985e-26  2.7771058333708627e-20  2.7762768264100668e-26  2.0252122337750379e-26  1.4694134487705593e-26  9.2433048156654896e-21  1.5718077431607677e-15  3.5494604650095528e-26  8.6073715624111291e-22  8.7062457562244529e-10  7.2570621672260888e-20  6.9889555841063857e-25  1.3722524321517337e-26  1.1295044403392183e-20  1.3810619110662364e-12  5.4327576794413146e-01  2.1688877022318893e-20  9.6318661347138533e-06  1.4921795010290656e-26  4.8940025763529188e-08  1.2336845901177794e-26  2.7259464018205849e-19  1.4314348308705564e-26  8.1043210357878111e-09  6.7863713200111147e-21  2.0671640553256669e-10  8.6505558907806142e-13  9.4078676854007351e-02  2.9578622585061370e-26  3.2640651227196617e-11  5.2465736156263837e-15  5.9265925130199352e-09  1.7870946276071629e-26  2.3576038125300759e-22  1.9894298708484094e-26  2.2014889376681368e-01  1.0012578793638770e-26  1.2651237408697159e-26  1.7766217325132129e-10  6.3843930258897989e-04  1.0785652364212758e-19  3.6632840226718504e-21  7.2126198996673806e-10  1.0524123978484764e-15  2.2189984628531138e-13  2.3065696867270100e-12  3.1866949603911655e-09  3.2921566531428448e-15  2.3124896715744645e-13  2.4770650504546643e-21  2.3376641957875088e-21  5.1577089461341763e-02  2.5818220105015240e-24  2.7683564045075895e-21  3.0036665802128895e-19  1.8961120854431793e-01  5.6363156911707790e-01  8.7044321268320800e-27  6.6024754948600913e-27  1.7733699006880879e-20  1.2028902224223673e-08  1.3969631563878951e-26  4.9053023255430659e-15  6.3241482140885418e-16  3.1059225757032283e-23  1.0134786097556097e-16  1.2579181138413716e-06  1.6918664601250464e-14  8.8509342460414085e-16  1.2658978050517702e-26  1.0715125828318063e-17  4.9562571247505929e-27  7.8582392110686287e-16  5.2612114633801478e-27  8.6765856104896049e-26  1.6363789203438794e-26  4.2988227119563125e-27  8.5121508807765832e-23  7.2798861915382078e-27  4.9327712722420568e-08  2.9665455975097596e-13  3.7875125906162979e-22  7.2248840393137842e-22  3.4275569844884460e-02  2.8242451686462159e-03  4.9111496326578667e-15  4.2948142316927415e-14  1.1808872031670374e-25  1.2532110197627798e-09  3.9340316329410495e-27  4.5460517740969642e-27  4.4709953650875319e-27  3.4231293736789637e-05  8.7496901945514253e-09  1.5163284389287289e-11  2.3075985400536787e-11  1.4406806911636115e-02  5.6129403776559783e-01  1.9844619869026332e-22  5.5948361304396776e-06  2.0973758618689881e-20  5.5214616755525231e-11  4.0155312680802983e-26  3.9903832027928430e-27  3.7290954437410436e-26  1.5209575137040477e-17  6.3199806973853181e-22  1.1038943741814153e-12  1.6516124592783495e-08  3.1555272128673877e-06  1.1418851101586905e-22  1.7648614780815231e-25  5.0564943218891056e-26  8.7413132207529271e-13  2.2212784336276960e-27  2.6576340334235319e-05  2.5475074826543447e-08  1.9892134729211601e-19  3.3222234110021931e-21  1.4546829094841751e-17  2.9462384528841423e-04  1.0826880204358681e-03  1.5936231568274184e-05  1.0667427293049608e-04  2.1551163383217915e-03  7.9394385778439880e-02  1.1661840416001126e-01  1.0182739680296325e-15  2.5503077425842861e-17  3.9364525464465896e-19  2.5661603694960410e-03  3.8322827235814041e-27  8.7170926034502423e-22  1.4281574937978981e-06  1.0611308980088684e-01  3.0865041257777109e-08  3.7943405919565943e-15  7.6298902465316027e-12  1.5951496123919071e-01  2.5595517098364986e-27  3.1955323206699498e-11  3.8396661233858670e-27  2.6045812716243871e-27  2.9346724075595858e-27  2.4622187355649652e-01  5.9462085553842459e-01  9.9626153543971667e-04  4.9883388429168465e-02  9.4885433496045579e-17  2.2672214561729772e-14  2.1580632699735455e-18  4.7337516652193963e-13  9.3186931445011368e-16  4.9833940274085556e-15  4.0737048279890598e-11  1.2609390555428096e-15  2.3430321294941612e-03  1.5731655161128429e-19  1.1706633542095356e-01  7.0277548727807504e-02  1.6332400625577846e-12  2.4260235180300748e-18  4.1567583256626884e-17  3.3636195704764338e-27  6.0952075034666757e-21  1.2706092263055816e-20  1.1897790611385233e-27  1.3024184268392114e-04  1.9737282082607671e-27  1.6227227252109455e-27  8.6460865386211178e-23  1.2597334077159285e-06  2.6333195641080095e-05  1.0476427381320643e-02  1.8020719571371735e-27  1.8687712955856022e-18  1.0817938861464254e-15  3.9578831009119646e-10  2.4140042445594032e-04  4.3265375685881254e-19  1.6629893867209041e-09  1.4037210092358786e-04  7.3897049731789163e-02  8.6790307614772465e-17  2.3644026045830741e-21  2.3700697978099870e-09  3.5323256924175501e-23  1.8998482317178187e-23  1.0654406003514845e-16  2.0166892013285606e-27  1.7047296175704305e-21  1.3753799498356241e-20  1.3189553569334384e-27  7.6109325921805653e-17  1.2002519318880201e-16  1.3549045855506399e-27  3.5186672802160549e-23  6.3558598550677864e-28  2.9672537296670551e-22  2.6653349000940124e-23  1.0873179094706752e-11  6.2959639243598486e-01  1.2578795303022943e-23  2.5329474194051937e-01  1.6883493461833948e-01  7.8516701802569545e-20  1.5155372033331998e-27  2.5646223666790839e-13  2.0185023500550194e-23  7.9037703462901329e-04  2.2273527757608335e-23  1.1359839938754630e-17  4.6362641517004977e-01  8.1297417058516533e-22  1.0733612918166871e-27  1.5459645219854512e-26  1.3547236328352627e-21  2.8222974107368520e-05  1.2236491553566870e-07  1.3555321260131766e-17  1.3949202414248309e-26  3.0954575235735693e-01  1.2394630242758585e-13  9.4372313880829906e-28  1.5308991744281828e-10  9.4899492269434150e-28  2.6330260345331802e-22  1.4795482167315292e-09  3.1601916425913402e-27  8.1967742275335348e-02  1.1076644130763109e-27  1.2704786259781204e-21  1.0165859231133962e-27  9.5470199221813636e-07  1.1661773153350903e-12  9.1132282648653525e-17  1.9286997309815772e-12  7.1293563455246021e-28  2.6320698268833343e-22  1.1030675270445280e-06  1.7873610891913269e-26  6.3489480234860724e-14  2.2386419003958744e-19  8.7502737402283799e-28  7.5410718506460913e-28  2.6882070929985386e-11  4.1885114784215476e-24  2.4264605350188318e-08  4.7732981900984470e-19  4.1132421091736481e-11  8.3064198277011564e-13  7.4703926606639451e-28  1.0464181855771048e-22  6.8013386340242096e-22  6.9389773870949834e-24  8.2212641617621617e-24  1.2871056755543776e-07  2.1207274140871992e-05  1.2040709269685068e-01  1.1328992174633844e-05  6.4415990494172026e-22  1.1700564635583914e-02  3.7786526761534099e-09  1.8420698581114786e-22  4.0793552847409050e-28  2.2759038160804317e-26  2.2740971781974782e-14  6.6870150887560295e-16  7.0637464086966257e-19  9.9108593892955105e-06  1.8261449975235186e-18  6.6467362747897053e-28  4.8930852631965844e-28  5.6063244117155660e-27  6.0497804652938404e-16  2.1208363060121757e-23  1.3300068644259709e-19  9.9445214584057323e-24  6.2588846575162886e-23  6.5550102743594762e-23  1.7306005607353737e-14  4.7694000459682866e-22  2.1062585748004974e-09  2.8874101955961951e-13  8.6373056074389168e-12  1.3844161292370793e-13  2.1147140922292492e-10  6.0284161817357458e-07  4.7595739081140633e-24  2.7032309589341515e-07  3.1872034338644117e-20  4.2058053525640471e-01  3.3562000781116961e-15  1.4401065197669589e-09  5.7791752101777477e-11  2.7481071489411727e-06  3.6246281083816163e-24  5.1767725430444822e-28  5.8525198412617269e-28  1.9387611088940038e-02  6.0009615890864191e-17  4.1553493019848654e-10  1.9353132801593751e-09  3.5120600155875435e-25  2.4355978735105352e-13  6.5032576472082528e-28  9.1469582055271212e-02  9.3617319357091927e-04  6.8834081648771690e-09  1.0893256060197049e-19  7.2149445957935487e-23  5.8093601995991492e-24  9.6996006443911658e-19  2.1064879029722018e-18  1.4658796970354653e-12  1.9019445659043315e-24  7.8046438886880736e-09  3.7527026513715531e-10  6.4967727798239486e-22  9.7203079660488953e-02  2.2779601840334881e-18  4.4254722342047466e-10  2.1429553329377465e-17  1.3014524201783860e-14  7.5705592884048024e-16  6.5724468498132200e-20  3.6138000771979640e-28  3.2223165365334505e-23  3.7551676355590169e-28  1.7562143433275188e-24  3.1807356395048187e-26  1.0165956861810533e-04  4.8242517920288590e-21  6.1886429095448648e-13  5.1738810877898600e-20  3.2819650712135507e-07  1.4606810652033262e-12  5.3313208686163211e-04  3.0400532902440671e-26  2.3992736571000205e-07  6.4444058379544417e-27  2.8403131474644215e-28  1.0288400547757099e-27  8.3112692964208303e-11  1.0453537320539043e-24  3.7741262179985337e-28  6.0227742710021100e-11  2.6078199727816717e-11  5.9547533944473258e-15  4.8361427723466480e-20  1.2489975863268184e-24  3.3666315490616292e-20  6.4965325713014481e-19  2.2727734475419112e-15  2.4023967599658877e-13  1.9830054844401126e-15  3.9816324655477727e-11  5.0714109357749397e-04  1.4402975960272773e-18  4.1