<?xml version="1.0"?>
<VTKFile type="UnstructuredGrid"  version="0.1"  >
<UnstructuredGrid>
<Piece  NumberOfPoints="20054" NumberOfCells="39478">
<Points>
<DataArray  type="Float64"  NumberOfComponents="3"  format="ascii">1 0 0  0.9997998037428526 0.02000880895389431 0  0.9991992951284931 0.04000960653046352 0  0.9981987145960756 0.05999438456007805 0  0.9967984627705549 0.07995514128721501 0  0.9949991003022806 0.09988388457430118 0  0.9928013476425149 0.1197726351017051 0  0.9902060847549715 0.139613429562597 0  0.987214350763483 0.1593983238513969 0  0.9838273435359444 0.1791193962445356 0  0.9800464192046954 0.198768750572253 0  0.9758730916235354 0.2183385193801655 0  0.9713090317615876 0.237820867079336 0  0.9663560670342555 0.2572079930835849 0  0.9610161805715396 0.2764921349327862 0  0.9552915104240066 0.2956655714008991 0  0.9491843487067304 0.3147206255874884 0  0.9426971406815462 0.3336496679914983 0  0.9358324837779861 0.3524451195660473 0  0.9285931265532873 0.3710994547530225 0  0.9209819675918909 0.3896052044962556 0  0.9130020543448703 0.4079549592320781 0  0.9046565819097542 0.4261413718560547 0  0.8959488917512338 0.4441571606647087 0  0.8868824703632656 0.4619951122710622 0  0.8774609478731046 0.4796480844928215 0  0.8676880965878291 0.4971090092120542 0  0.8575678294839372 0.5143708952052096 0  0.8471041986406199 0.5314268309423539 0  0.8363013936173391 0.5482699873544935 0  0.8251637397763597 0.5648936205678837 0  0.8136956965509062 0.5812910746042258 0  0.8019018556596399 0.5974557840456699 0  0.7897869392681683 0.6133812766635599 0  0.777355798098326 0.6290611760098652 0  0.7646134094859813 0.6444892039702628 0  0.7515648753881492 0.6596591832778468 0  0.7382154203402046 0.6745650399864606 0  0.7245703893640189 0.6892008059026586 0  0.7106352458278521 0.7035606209753273 0  0.6964155692588616 0.7176387356420051 0  0.6819170531091018 0.7314295131309636 0  0.6671455024759069 0.7449274317181303 0  0.6521068317775753 0.7581270869379442 0  0.6368070623852795 0.7710231937472638 0  0.6212523202121545 0.7836105886414595 0  0.6054488332605282 0.795884231721841 0  0.5894029291282759 0.8078392087135958 0  0.5731210324752972 0.8194707329334278 0  0.5566096624511305 0.8307741472061095 0  0.5398754300847343 0.8417449257291802 0  0.5229250356374803 0.8523786758850435 0  0.5057652659204196 0.8626711399997378 0  0.4884029915768944 0.8726181970476778 0  0.4708451643315825 0.8822158643016828 0  0.45309881420708 0.8914602989276292 0  0.4351710467091336 0.9003477995230937 0  0.4170690399816468 0.9088748075993677 0  0.398800041932607 0.9170379090062476 0  0.3803713673320772 0.9248338352990368 0  0.3617903948834157 0.9322594650472057 0  0.3430645642688987 0.9393118250841893 0  0.3242013731709288 0.9459880916978206 0  0.3052083742700172 0.952285591760924 0  0.2860931722207478 0.9582018038016155 0  0.2668634206069304 0.963734359012881 0  0.2475268188771628 0.9688810422010291 0  0.2280911092620296 0.9736397926726377 0  0.2085640736741707 0.9780087050596407 0  0.1889535305924618 0.9819860300822225 0  0.1692673319315541 0.9855701752492174 0  0.1495133598980264 0.9887597054957302 0  0.1296995238344084 0.9915533437577263 0  0.1098337570523395 0.9939499714833577 0  0.08992401365612977 0.9959486290808237 0  0.06997826535799723 0.9975485163025836 0  0.05000449828625179 0.9987489925657699 0  0.03001070978771124 0.9995495772086734 0  0.01000490522562346 0.9999499496831961 0  -0.01000490522562333 0.9999499496831961 0  -0.03001070978771133 0.9995495772086734 0  -0.05000449828625144 0.9987489925657699 0  -0.06997826535799688 0.9975485163025836 0  -0.08992401365612987 0.9959486290808237 0  -0.1098337570523394 0.9939499714833577 0  -0.1296995238344082 0.9915533437577263 0  -0.1495133598980262 0.9887597054957303 0  -0.1692673319315537 0.9855701752492174 0  -0.1889535305924614 0.9819860300822226 0  -0.2085640736741705 0.9780087050596407 0  -0.2280911092620295 0.9736397926726377 0  -0.2475268188771627 0.9688810422010291 0  -0.2668634206069302 0.9637343590128811 0  -0.2860931722207475 0.9582018038016156 0  -0.3052083742700173 0.9522855917609239 0  -0.3242013731709289 0.9459880916978205 0  -0.3430645642688986 0.9393118250841894 0  -0.3617903948834154 0.9322594650472058 0  -0.380371367332077 0.924833835299037 0  -0.3988000419326071 0.9170379090062476 0  -0.4170690399816465 0.9088748075993678 0  -0.4351710467091335 0.9003477995230939 0  -0.4530988142070799 0.8914602989276292 0  -0.4708451643315824 0.8822158643016829 0  -0.4884029915768945 0.8726181970476778 0  -0.5057652659204197 0.8626711399997378 0  -0.5229250356374801 0.8523786758850437 0  -0.5398754300847342 0.8417449257291804 0  -0.5566096624511303 0.8307741472061098 0  -0.5731210324752971 0.8194707329334279 0  -0.589402929128276 0.8078392087135957 0  -0.6054488332605281 0.7958842317218411 0  -0.6212523202121542 0.7836105886414597 0  -0.6368070623852793 0.7710231937472639 0  -0.652106831777575 0.7581270869379444 0  -0.6671455024759069 0.7449274317181304 0  -0.6819170531091018 0.7314295131309636 0  -0.6964155692588616 0.7176387356420052 0  -0.7106352458278521 0.7035606209753273 0  -0.7245703893640187 0.6892008059026588 0  -0.7382154203402043 0.6745650399864608 0  -0.751564875388149 0.6596591832778469 0  -0.7646134094859813 0.6444892039702628 0  -0.7773557980983258 0.6290611760098654 0  -0.7897869392681683 0.6133812766635599 0  -0.8019018556596398 0.59745578404567 0  -0.8136956965509062 0.5812910746042258 0  -0.8251637397763595 0.5648936205678839 0  -0.836301393617339 0.5482699873544935 0  -0.8471041986406197 0.5314268309423542 0  -0.8575678294839372 0.5143708952052097 0  -0.8676880965878292 0.497109009212054 0  -0.8774609478731045 0.4796480844928216 0  -0.8868824703632656 0.4619951122710621 0  -0.8959488917512338 0.4441571606647088 0  -0.904656581909754 0.426141371856055 0  -0.9130020543448703 0.4079549592320783 0  -0.920981967591891 0.3896052044962555 0  -0.9285931265532872 0.3710994547530226 0  -0.9358324837779861 0.3524451195660473 0  -0.9426971406815462 0.3336496679914984 0  -0.9491843487067303 0.3147206255874888 0  -0.9552915104240065 0.2956655714008993 0  -0.9610161805715396 0.2764921349327862 0  -0.9663560670342555 0.2572079930835851 0  -0.9713090317615876 0.2378208670793361 0  -0.9758730916235353 0.2183385193801658 0  -0.9800464192046954 0.198768750572253 0  -0.9838273435359444 0.1791193962445354 0  -0.987214350763483 0.159398323851397 0  -0.9902060847549714 0.1396134295625972 0  -0.9928013476425149 0.1197726351017052 0  -0.9949991003022804 0.09988388457430147 0  -0.9967984627705549 0.07995514128721509 0  -0.9981987145960756 0.05999438456007793 0  -0.9991992951284931 0.04000960653046362 0  -0.9997998037428526 0.02000880895389464 0  -1 1.224646799147353e-16 0  -0.9997998037428526 -0.0200088089538944 0  -0.9991992951284931 -0.04000960653046338 0  -0.9981987145960756 -0.05999438456007812 0  -0.9967984627705549 -0.07995514128721484 0  -0.9949991003022806 -0.09988388457430078 0  -0.9928013476425149 -0.1197726351017049 0  -0.9902060847549715 -0.1396134295625965 0  -0.9872143507634831 -0.1593983238513963 0  -0.9838273435359444 -0.1791193962445356 0  -0.9800464192046953 -0.1987687505722532 0  -0.9758730916235354 -0.2183385193801655 0  -0.9713090317615876 -0.2378208670793363 0  -0.9663560670342556 -0.2572079930835848 0  -0.9610161805715396 -0.276492134932786 0  -0.9552915104240066 -0.2956655714008991 0  -0.9491843487067305 -0.3147206255874881 0  -0.9426971406815464 -0.3336496679914978 0  -0.9358324837779862 -0.3524451195660471 0  -0.9285931265532875 -0.371099454753022 0  -0.9209819675918909 -0.3896052044962557 0  -0.9130020543448704 -0.407954959232078 0  -0.9046565819097541 -0.4261413718560548 0  -0.8959488917512338 -0.4441571606647086 0  -0.8868824703632655 -0.4619951122710623 0  -0.8774609478731046 -0.4796480844928214 0  -0.8676880965878293 -0.4971090092120538 0  -0.8575678294839373 -0.5143708952052095 0  -0.84710419864062 -0.5314268309423537 0  -0.8363013936173395 -0.5482699873544929 0  -0.8251637397763596 -0.5648936205678838 0  -0.8136956965509061 -0.5812910746042259 0  -0.8019018556596399 -0.5974557840456699 0  -0.7897869392681682 -0.61338127666356 0  -0.777355798098326 -0.6290611760098652 0  -0.7646134094859816 -0.6444892039702625 0  -0.7515648753881492 -0.6596591832778468 0  -0.7382154203402048 -0.6745650399864603 0  -0.7245703893640192 -0.6892008059026583 0  -0.7106352458278522 -0.7035606209753272 0  -0.6964155692588621 -0.7176387356420046 0  -0.6819170531091017 -0.7314295131309637 0  -0.667145502475907 -0.7449274317181303 0  -0.6521068317775756 -0.758127086937944 0  -0.6368070623852792 -0.7710231937472641 0  -0.6212523202121544 -0.7836105886414596 0  -0.6054488332605283 -0.795884231721841 0  -0.5894029291282762 -0.8078392087135956 0  -0.5731210324752977 -0.8194707329334274 0  -0.5566096624511304 -0.8307741472061095 0  -0.5398754300847344 -0.8417449257291802 0  -0.5229250356374798 -0.8523786758850437 0  -0.5057652659204195 -0.8626711399997379 0  -0.4884029915768943 -0.872618197047678 0  -0.4708451643315825 -0.8822158643016828 0  -0.4530988142070805 -0.8914602989276289 0  -0.4351710467091333 -0.900347799523094 0  -0.4170690399816467 -0.9088748075993677 0  -0.3988000419326073 -0.9170379090062475 0  -0.3803713673320777 -0.9248338352990366 0  -0.3617903948834162 -0.9322594650472055 0  -0.3430645642688988 -0.9393118250841893 0  -0.3242013731709283 -0.9459880916978207 0  -0.3052083742700169 -0.9522855917609241 0  -0.2860931722207477 -0.9582018038016155 0  -0.2668634206069305 -0.963734359012881 0  -0.2475268188771631 -0.968881042201029 0  -0.2280911092620301 -0.9736397926726376 0  -0.2085640736741706 -0.9780087050596407 0  -0.1889535305924619 -0.9819860300822225 0  -0.1692673319315544 -0.9855701752492173 0  -0.1495133598980269 -0.9887597054957302 0  -0.1296995238344092 -0.9915533437577262 0  -0.1098337570523396 -0.9939499714833577 0  -0.08992401365612945 -0.9959486290808237 0  -0.06997826535799691 -0.9975485163025836 0  -0.05000449828625168 -0.9987489925657699 0  -0.030010709787
[...]
<PointData  Scalars="Displacement"> 
<DataArray  type="Float64"  Name="Displacement"  format="ascii">0.0000000000000000e+00  0.0000000000000000e+00  0.0000000000000000e+00  0.0000000000000000e+00  0.0000000000000000e+00  0.0000000000000000e+00  0.0000000000000000e+00  0.0000000000000000e+00  0.0000000000000000e+00  0.0000000000000000e+00  0.0000000000000000e+00  0.0000000000000000e+00  0.0000000000000000e+00  0.0000000000000000e+00  0.0000000000000000e+00  0.0000000000000000e+00  0.0000000000000000e+00  0.0000000000000000e+00  0.0000000000000000e+00  0.0000000000000000e+00  0.0000000000000000e+00  0.0000000000000000e+00  0.0000000000000000e+00  0.0000000000000000e+00  0.0000000000000000e+00  0.0000000000000000e+00  0.0000000000000000e+00  0.0000000000000000e+00  0.0000000000000000e+00  0.0000000000000000e+00  0.0000000000000000e+00  0.0000000000000000e+00  0.0000000000000000e+00  0.0000000000000000e+00  0.0000000000000000e+00  0.0000000000000000e+00  0.0000000000000000e+00  0.0000000000000000e+00  0.0000000000000000e+00  0.0000000000000000e+00  0.0000000000000000e+00  0.0000000000000000e+00  0.0000000000000000e+00  0.0000000000000000e+00  0.0000000000000000e+00  0.0000000000000000e+00  0.0000000000000000e+00  0.0000000000000000e+00  0.0000000000000000e+00  0.0000000000000000e+00  0.0000000000000000e+00  0.0000000000000000e+00  0.0000000000000000e+00  0.0000000000000000e+00  0.0000000000000000e+00  0.0000000000000000e+00  0.0000000000000000e+00  0.0000000000000000e+00  0.0000000000000000e+00  0.0000000000000000e+00  0.0000000000000000e+00  0.0000000000000000e+00  0.0000000000000000e+00  0.0000000000000000e+00  0.0000000000000000e+00  0.0000000000000000e+00  0.0000000000000000e+00  0.0000000000000000e+00  0.0000000000000000e+00  0.0000000000000000e+00  0.0000000000000000e+00  0.0000000000000000e+00  0.0000000000000000e+00  0.0000000000000000e+00  0.0000000000000000e+00  0.0000000000000000e+00  0.0000000000000000e+00  0.0000000000000000e+00  0.0000000000000000e+00  0.0000000000000000e+00  0.0000000000000000e+00  0.0000000000000000e+00  0.0000000000000000e+00  0.0000000000000000e+00  0.0000000000000000e+00  0.0000000000000000e+00  0.0000000000000000e+00  0.0000000000000000e+00  0.0000000000000000e+00  0.0000000000000000e+00  0.0000000000000000e+00  0.0000000000000000e+00  0.0000000000000000e+00  0.0000000000000000e+00  0.0000000000000000e+00  0.0000000000000000e+00  0.0000000000000000e+00  0.0000000000000000e+00  0.0000000000000000e+00  0.0000000000000000e+00  0.0000000000000000e+00  0.0000000000000000e+00  0.0000000000000000e+00  0.0000000000000000e+00  0.0000000000000000e+00  0.0000000000000000e+00  0.0000000000000000e+00  0.0000000000000000e+00  0.0000000000000000e+00  0.0000000000000000e+00  0.0000000000000000e+00  0.0000000000000000e+00  0.0000000000000000e+00  0.0000000000000000e+00  0.0000000000000000e+00  0.0000000000000000e+00  0.0000000000000000e+00  0.0000000000000000e+00  0.0000000000000000e+00  0.0000000000000000e+00  0.0000000000000000e+00  0.0000000000000000e+00  0.0000000000000000e+00  0.0000000000000000e+00  0.0000000000000000e+00  0.0000000000000000e+00  0.0000000000000000e+00  0.0000000000000000e+00  0.0000000000000000e+00  0.0000000000000000e+00  0.0000000000000000e+00  0.0000000000000000e+00  0.0000000000000000e+00  0.0000000000000000e+00  0.0000000000000000e+00  0.0000000000000000e+00  0.0000000000000000e+00  0.0000000000000000e+00  0.0000000000000000e+00  0.0000000000000000e+00  0.0000000000000000e+00  0.0000000000000000e+00  0.0000000000000000e+00  0.0000000000000000e+00  0.0000000000000000e+00  0.0000000000000000e+00  0.0000000000000000e+00  0.0000000000000000e+00  0.0000000000000000e+00  0.0000000000000000e+00  0.0000000000000000e+00  0.0000000000000000e+00  0.0000000000000000e+00  0.0000000000000000e+00  0.0000000000000000e+00  0.0000000000000000e+00  0.0000000000000000e+00  0.0000000000000000e+00  0.0000000000000000e+00  0.0000000000000000e+00  0.0000000000000000e+00  0.0000000000000000e+00  0.0000000000000000e+00  0.0000000000000000e+00  0.0000000000000000e+00  0.0000000000000000e+00  0.0000000000000000e+00  0.0000000000000000e+00  0.0000000000000000e+00  0.0000000000000000e+00  0.0000000000000000e+00  0.0000000000000000e+00  0.0000000000000000e+00  0.0000000000000000e+00  0.0000000000000000e+00  0.0000000000000000e+00  0.0000000000000000e+00  0.0000000000000000e+00  0.0000000000000000e+00  0.0000000000000000e+00  0.0000000000000000e+00  0.0000000000000000e+00  0.0000000000000000e+00  0.0000000000000000e+00  0.0000000000000000e+00  0.0000000000000000e+00  0.0000000000000000e+00  0.0000000000000000e+00  0.0000000000000000e+00  0.0000000000000000e+00  0.0000000000000000e+00  0.0000000000000000e+00  0.0000000000000000e+00  0.0000000000000000e+00  0.0000000000000000e+00  0.0000000000000000e+00  0.0000000000000000e+00  0.0000000000000000e+00  0.0000000000000000e+00  0.0000000000000000e+00  0.0000000000000000e+00  0.0000000000000000e+00  0.0000000000000000e+00  0.0000000000000000e+00  0.0000000000000000e+00  0.0000000000000000e+00  0.0000000000000000e+00  0.0000000000000000e+00  0.0000000000000000e+00  0.0000000000000000e+00  0.0000000000000000e+00  0.0000000000000000e+00  0.0000000000000000e+00  0.0000000000000000e+00  0.0000000000000000e+00  0.0000000000000000e+00  0.0000000000000000e+00  0.0000000000000000e+00  0.0000000000000000e+00  0.0000000000000000e+00  0.0000000000000000e+00  0.0000000000000000e+00  0.0000000000000000e+00  0.0000000000000000e+00  0.0000000000000000e+00  0.0000000000000000e+00  0.0000000000000000e+00  0.0000000000000000e+00  0.0000000000000000e+00  0.0000000000000000e+00  0.0000000000000000e+00  0.0000000000000000e+00  0.0000000000000000e+00  0.0000000000000000e+00  0.0000000000000000e+00  0.0000000000000000e+00  0.0000000000000000e+00  0.0000000000000000e+00  0.0000000000000000e+00  0.0000000000000000e+00  0.0000000000000000e+00  0.0000000000000000e+00  0.0000000000000000e+00  0.0000000000000000e+00  0.0000000000000000e+00  0.0000000000000000e+00  0.0000000000000000e+00  0.0000000000000000e+00  0.0000000000000000e+00  0.0000000000000000e+00  0.0000000000000000e+00  0.0000000000000000e+00  0.0000000000000000e+00  0.0000000000000000e+00  0.0000000000000000e+00  0.0000000000000000e+00  0.0000000000000000e+00  0.0000000000000000e+00  0.0000000000000000e+00  0.0000000000000000e+00  0.0000000000000000e+00  0.0000000000000000e+00  0.0000000000000000e+00  0.0000000000000000e+00  0.0000000000000000e+00  0.0000000000000000e+00  0.0000000000000000e+00  0.0000000000000000e+00  0.0000000000000000e+00  0.0000000000000000e+00  0.0000000000000000e+00  0.0000000000000000e+00  0.0000000000000000e+00  0.0000000000000000e+00  0.0000000000000000e+00  0.0000000000000000e+00  0.0000000000000000e+00  0.0000000000000000e+00  0.0000000000000000e+00  0.0000000000000000e+00  0.0000000000000000e+00  0.0000000000000000e+00  0.0000000000000000e+00  0.0000000000000000e+00  0.0000000000000000e+00  0.0000000000000000e+00  0.0000000000000000e+00  0.0000000000000000e+00  0.0000000000000000e+00  0.0000000000000000e+00  0.0000000000000000e+00  0.0000000000000000e+00  0.0000000000000000e+00  0.0000000000000000e+00  0.0000000000000000e+00  0.0000000000000000e+00  0.0000000000000000e+00  0.0000000000000000e+00  0.0000000000000000e+00  0.0000000000000000e+00  0.0000000000000000e+00  0.0000000000000000e+00  0.0000000000000000e+00  0.0000000000000000e+00  0.0000000000000000e+00  0.0000000000000000e+00  0.0000000000000000e+00  0.0000000000000000e+00  0.0000000000000000e+00  0.0000000000000000e+00  0.0000000000000000e+00  0.0000000000000000e+00  0.0000000000000000e+00  0.0000000000000000e+00  -1.6350583476378302e+61  8.2196047611455094e+55  -1.7077474932756562e+57  1.9506671148612360e+56  -1.4819426208723307e+57  1.5794875935741130e+56  -7.5744044437825031e+54  1.8753996491428038e+52  1.8570631404452217e+52  -3.3399910312221260e+51  -1.3347337164140326e+52  -7.4525501440235608e+60  4.0426154671672169e+50  -2.3015718924712448e+50  -6.4477786419457742e+60  2.3827904175888195e+61  -1.5411423954582649e+50  -7.7705918616439541e+49  1.3876467280807871e+49  -5.4050443854679270e+49  -8.2190053404667449e+48  -7.2730569356759218e+49  -1.6552814996713980e+49  -1.2246608913203934e+58  -2.0506165375415346e+60  -1.4040485278355943e+60  -1.4161036447816051e+50  -8.6516039777187363e+47  -1.0890792188231326e+49  -1.1650181614217114e+58  -3.4082808230405830e+48  -2.8216753415269749e+61  -5.9342886548245209e+61  4.5279261080572657e+58  -1.8900607764132373e+49  -2.0772297660718908e+47  -6.9242908563497992e+46  1.2694134022259613e+47  -5.6019913057794068e+46  4.5125649669432835e+55  -4.1787181659995910e+56  5.7578626620706739e+53  -2.7231360019003420e+54  6.3591811478615609e+61  7.4349248805289975e+46  2.4983739635445043e+47  -3.5459103394204660e+46  -1.4991114797389526e+47  2.7553588213822034e+54  9.8948790231018249e+53  -1.7435689475524324e+52  4.2917417782694288e+54  1.3060122321075946e+54  -3.2407520112005378e+57  3.5496549199210195e+47  9.8981352390367629e+60  6.2265849437272910e+46  1.0486545753187590e+46  3.0743544578330601e+58  -3.5022555808796266e+46  3.9902668420158062e+45  -2.2264947303140772e+51  1.2716683376579379e+46  3.7661354786213421e+45  8.6687513272972257e+60  -6.0937111931353274e+60  1.6162236206871382e+61  9.9640869014051081e+56  1.9570323817767287e+60  2.9565510811263354e+60  8.8096806510133414e+59  -1.0825756852982146e+55  -2.7093962561380697e+53  -1.0746531729644560e+54  -9.7287472049482928e+52  -3.8059435232229636e+58  9.2957432078791346e+44  7.3964650802814232e+56  -3.6251332556482730e+59  1.8892844480720220e+53  -1.2900834437140027e+46  3.0330790145051836e+57  8.8276400667966051e+45  -5.0525349501502919e+45  1.4058078946574403e+45  -2.0885048054338617e+63  -6.7935928284864057e+45  1.0505231617550203e+44  -8.2308542637991929e+45  -8.0056967374648393e+59  8.2305325454743894e+50  -9.8298662439823229e+44  -7.4047301609549288e+51  -1.0507961394257262e+45  1.8574398248202039e+51  7.4479703530671845e+62  -2.7514590679304283e+44  2.4209655929119856e+44  1.0834811821996738e+51  -6.7526184111036565e+48  8.7848116133514905e+52  4.7682473501756291e+51  1.2706360092125228e+46  5.2985250786985033e+57  -1.7233916363278273e+55  1.1545150643283009e+55  2.8145068122360463e+57  5.7493013560064673e+51  -1.4192895926302618e+51  3.0618037798306846e+44  8.8691704491945944e+56  1.3471975358369719e+44  5.7877015366638158e+44  -6.7843072977208706e+54  -1.0559135155517334e+54  1.8884658409454692e+49  -6.5326936970966044e+44  -1.3807984577852814e+45  -2.3988122045292634e+43  6.4923822383029403e+61  6.4347827056242657e+58  -1.4408392643625800e+47  1.9613510760994006e+62  -1.2584137806848302e+46  -1.8907432750800612e+50  2.5474574689430554e+50  -1.2465947995729146e+44  4.0253601765893068e+44  2.5630842232161405e+49  -5.0304469520689266e+49  -2.2773533503557866e+52  -1.9497077546350553e+49  -2.1796075265762460e+54  -1.9590717320175143e+56  9.8401950766949714e+52  3.6819702173722198e+49  1.2797089087413289e+45  1.0963307717137568e+64  -1.0214070667065952e+59  -4.0907251778138891e+60  5.0139339625127097e+60  -5.1427678617648282e+63  -3.0675748430796946e+48  5.5150117553572232e+58  -7.2778192546494238e+52  -5.8452494169829042e+48  3.9782696890862931e+47  -3.8276870861135882e+60  -4.0477221527985028e+62  3.0300415683766119e+52  -1.0194410346500813e+44  -1.8719535659148303e+54  -1.2497935396261765e+60  -2.5540605702623839e+49  5.7275776313819039e+48  -5.9855137247947462e+46  1.1538839891085061e+44  -7.5658226444547441e+48  3.9159285375569667e+43  1.4037344067039167e+43  1.0019785481711142e+43  -3.9595688639363992e+46  -1.2254147895896428e+52  3.9241497372267964e+44  3.4214997590782539e+46  -1.1569580863323985e+55  -5.2731123295809486e+49  -1.3348000153425396e+46  2.0505941441826714e+44  -6.3981116706384177e+48  -2.6908542598481134e+55  -1.2705670293193507e+61  -1.2399230216797010e+48  1.9150840976075800e+59  -3.9032169684492461e+42  1.2379093571457381e+56  2.6522330316840983e+44  4.0671532053782993e+49  -1.9044479159953286e+43  5.9774783778198816e+56  -3.4629511737681104e+48  -1.8766523946096479e+57  1.3982724700195705e+53  -1.5476385864677074e+63  -1.2592264247828957e+44  5.6496107335802947e+53  -8.2508358253814273e+50  -5.4087413341236326e+56  1.9347562743504954e+44  1.4892775713436713e+47  1.2683756192775207e+44  -5.0666568711609105e+61  -3.3597924475395423e+44  1.7623334750184125e+44  2.5235698745261703e+56  -6.9766045150951375e+59  -3.0997988815397758e+48  1.2968949788631799e+49  1.5034151244395854e+55  -2.5288500833327986e+51  6.1591570520474897e+53  3.4596360235474361e+54  -8.2237533224679948e+55  3.8223289649203105e+51  2.5317915574258187e+53  8.7077988148736710e+48  -2.5938829606956085e+48  2.7410200646942698e+60  -1.3916385188324515e+44  -1.2259130131666643e+49  -2.3937122512440233e+49  -1.8545606435274547e+61  -3.4671861352504043e+60  -2.0607858778106941e+44  4.3341389444844570e+42  -1.1216143818993832e+49  -1.7755705233461462e+58  4.2719173316973484e+43  2.3089077036272568e+51  2.7054465052809357e+52  3.5895597334866609e+46  -7.3797911277395503e+51  9.3991417345583784e+57  1.3331462465441834e+52  2.9360463605542873e+52  -2.5349174466260401e+43  1.6288788967129744e+50  -9.9929973391023026e+43  1.7047624961305816e+51  2.0221384933007108e+42  -4.3045864901116581e+44  -1.2708536843745424e+44  -1.9246230076142979e+43  -6.6063993575860116e+46  -1.8307090079621241e+43  -2.0811307179410371e+55  -1.8111620354778592e+53  -4.8488177437816164e+45  1.7077694504106885e+47  1.3474547175089747e+61  -6.3779696054795409e+60  -1.2906184652957116e+53  -2.8539451273533455e+53  8.7888848778342620e+43  -3.4057355030848456e+56  -3.8498019541775233e+44  1.9618868018192675e+43  2.3919329361942537e+42  -5.1110810405226114e+57  -1.0291008707445883e+55  1.5738364304923024e+54  -1.0757507270336388e+54  -2.0451054626867931e+61  -4.5513523792674771e+60  -5.0111275382103810e+46  2.7753345362371644e+59  5.0500573381023535e+49  9.2766760270872639e+55  -4.8087664275635636e+43  -1.9452575739240568e+43  -1.3987229099582623e+43  2.6228000330745625e+51  1.3271839292276579e+47  2.5106302219081507e+54  4.2293237154569060e+57  -3.4463023645097600e+57  -1.1053656168157157e+47  1.5244156096848770e+44  4.8388206538788757e+44  1.7189682346254363e+54  -5.1770215228961161e+42  1.8266535916979209e+60  -1.3719711136224593e+58  2.1799037551810414e+50  -1.4359015695396524e+48  2.1186874212821533e+50  1.3348157645450840e+60  6.5274137805493445e+59  4.4289612509662916e+58  4.1808364164030757e+57  -8.0022663583066219e+58  -1.8382600175613728e+60  2.5275181829365728e+60  -9.6985274854810612e+52  3.1865299735360289e+51  -2.8916405059942863e+48  -6.7231437428082737e+62  4.6943082432035729e+44  -9.3996082096260065e+46  -4.3256454193584169e+58  -2.0918468574130416e+62  3.9626039572472703e+57  -5.6720757416553495e+53  -8.7435261591163095e+55  -5.9249456855205000e+62  -1.2191789073291435e+44  2.2485639005350775e+56  6.0575366874113533e+43  2.3746409804575896e+43  -2.3258714335806750e+43  6.1637881239806812e+59  -5.8484884042159584e+59  -7.0369583403272451e+60  -2.5671369585192895e+61  1.8294964844658848e+52  -2.1552106838864336e+52  -2.1159641992147451e+50  -1.1634186655609317e+54  -1.2478120608252553e+53  -7.0172684353546917e+52  -6.2248172009681319e+56  2.1773029041063137e+53  3.2866321791871448e+60  -3.0304737783333021e+49  1.7677205524778063e+61  6.7049546814153291e+59  -3.2034319574349531e+52  1.0935274157286391e+50  1.0704934296608237e+51  4.5767998185476922e+41  -3.5957414652181853e+48  -3.0441561130857630e+48  1.9517495143933006e+43  -1.2375886728410746e+59  8.8905259610096266e+42  2.8924393586780432e+42  -1.5988827566615705e+45  -2.8529761698304130e+59  4.8370749149826644e+57  -5.4832512794828193e+60  -4.5886720433288841e+43  -1.5481309578147003e+50  8.6267534683406977e+51  2.0653727065124878e+57  5.9260253764923845e+56  -3.7932711645435839e+49  2.0071149322450891e+57  -4.6004577704681283e+59  -5.6811855774780451e+63  2.0720811615127599e+51  2.7161834282639526e+47  -3.4480325052359520e+56  1.8129929431310598e+46  -1.2432357039297982e+46  8.9761170424889669e+50  -9.3950557594430018e+42  2.7330428577876216e+48  -6.8696907679460884e+48  -7.2786036022964502e+42  -2.1005786491007895e+51  -1.8053526263546028e+52  -1.3401955051472501e+44  9.5829465342005023e+45  -4.4429935390135067e+42  -1.1565006581614922e+48  -1.0469558499587477e+47  -9.4381287280832163e+52  -2.4122432034779159e+62  -1.8100704054271127e+45  1.9739888793892988e+60  -1.1943956360736849e+61  -1.1709156732213367e+48  1.3178889653800510e+44  -5.0392041301466973e+53  -9.6401006082427699e+45  -9.0875870169715655e+61  2.0384393130294543e+46  2.3091938173093314e+49  -1.1805611932412918e+61  1.2627033095221987e+47  8.6605374820904108e+42  -3.8714403844432434e+43  4.0175687285264987e+47  -9.4020670983929757e+58  1.1458819309871412e+58  -6.8577745380254433e+49  -4.2386617263470763e+44  3.0754933701680530e+61  -4.0034272928432035e+52  1.6496001523635444e+43  6.9805625132424904e+55  5.9274270114684063e+43  1.0085690154534237e+47  7.4246244154420826e+56  2.0202619149820038e+43  -4.4553468155588261e+62  1.7561863906100564e+43  2.9306922806580365e+47  -5.3549305418733777e+42  -1.6955745921721945e+57  -8.1145268714109004e+53  2.5569074428135898e+50  2.5605347440297640e+55  -2.9128818895714577e+42  1.3732898402719069e+47  -3.7893396908863527e+57  -6.0849050186981733e+44  2.6332773658122077e+54  -3.0051775020445227e+49  -1.1811116729231634e+43  -3.7588796611861256e+42  -7.1607864982096701e+55  1.3547743652515476e+44  3.9466029547384743e+57  2.6730624802848932e+49  1.8592493619462361e+56  -6.3779126563154170e+54  6.1120823094435074e+41  1.3020076469661773e+46  -5.1089756676289561e+47  -3.3137871892739133e+46  2.9717354586324667e+46  -1.2153337426891171e+59  3.9746061715814995e+59  -3.4482430084025472e+63  -1.4322390639599867e+59  2.5885009434444793e+47  -6.7302648223109979e+61  3.1102958494030698e+58  2.5411273689093857e+46  -3.3908703548826246e+42  -1.5658672179389321e+42  -2.4441589647211409e+52  2.5479612922563230e+52  1.2004047012620194e+49  4.5951067115990454e+58  8.3851959239580205e+50  1.3359767783285306e+43  3.0214619147705857e+42  -3.9483237521442543e+43  -2.8613733116066597e+52  6.0912093562739642e+45  -1.6364593068707012e+49  3.2527357706770536e+45  -3.8589361853226471e+46  4.3773073829170898e+46  -6.2306344694240552e+52  -7.9433840045096254e+46  -9.5473216288762459e+56  2.5691112075176694e+54  -3.9028695053736250e+55  3.8893764697496839e+53  2.6906188969700225e+55  -6.2990968627961344e+57  4.1539413239093935e+46  -6.1734071273375633e+57  -1.1666566917396886e+49  5.7187056133816626e+62  -1.4569696110242108e+51  -1.0481656470326747e+57  -5.3614879279252065e+54  1.3503692159253156e+61  -5.7545195833214851e+46  1.5991152851010483e+42  2.8874199928357959e+42  -4.0706671923883734e+61  -1.1198085017321761e+51  1.9296556552379967e+56  4.0145430511035355e+55  -2.7615523651340068e+45  8.3346107954567707e+53  -5.9833227651233133e+41  9.9579297141093117e+61  8.9156832266446994e+61  -9.8206645108446772e+57  -1.5994718446850428e+49  6.5721899590168277e+46  -1.9110297372220973e+46  -4.8323650344845203e+50  1.5029729361486589e+51  -1.2779443049928970e+54  -4.3449427542958177e+45  -6.4584364759420601e+57  3.0127034327795201e+55  -6.2173299067711024e+48  1.4877386726979736e+62  -8.2032374078602998e+48  1.9660124195227218e+55  9.2734396271705200e+50  1.5349760107582003e+53  3.3787411361319876e+51  -1.7739347116963176e+48  -1.2137551719846070e+42  3.0019765095107343e+46  -7.3572997971645651e+40  1.7037742869258184e+45  3.7122723096584428e+43  1.9906605496462751e+59  5.3371003918498339e+47  3.1184812941788421e+53  2.7608043374085405e+48  -2.4588363064793954e+58  3.9590234562943858e+55  -7.7433236024238119e+60  -5.4964424769001134e+43  -7.2421831794716586e+58  -2.9479454846246600e+42  1.8526383177643276e+42  3.5333548317664985e+43  1.4196791938899558e+55  1.2667791422991276e+45  -5.0773912321017855e+43  4.4485169250254376e+55  1.5131822207293633e+55  -2