<?xml version="1.0"?>
<VTKFile type="UnstructuredGrid"  version="0.1"  >
<UnstructuredGrid>
<Piece  NumberOfPoints="20054" NumberOfCells="39478">
<Points>
<DataArray  type="Float64"  NumberOfComponents="3"  format="ascii">1 0 0  0.9997998037428526 0.02000880895389431 0  0.9991992951284931 0.04000960653046352 0  0.9981987145960756 0.05999438456007805 0  0.9967984627705549 0.07995514128721501 0  0.9949991003022806 0.09988388457430118 0  0.9928013476425149 0.1197726351017051 0  0.9902060847549715 0.139613429562597 0  0.987214350763483 0.1593983238513969 0  0.9838273435359444 0.1791193962445356 0  0.9800464192046954 0.198768750572253 0  0.9758730916235354 0.2183385193801655 0  0.9713090317615876 0.237820867079336 0  0.9663560670342555 0.2572079930835849 0  0.9610161805715396 0.2764921349327862 0  0.9552915104240066 0.2956655714008991 0  0.9491843487067304 0.3147206255874884 0  0.9426971406815462 0.3336496679914983 0  0.9358324837779861 0.3524451195660473 0  0.9285931265532873 0.3710994547530225 0  0.9209819675918909 0.3896052044962556 0  0.9130020543448703 0.4079549592320781 0  0.9046565819097542 0.4261413718560547 0  0.8959488917512338 0.4441571606647087 0  0.8868824703632656 0.4619951122710622 0  0.8774609478731046 0.4796480844928215 0  0.8676880965878291 0.4971090092120542 0  0.8575678294839372 0.5143708952052096 0  0.8471041986406199 0.5314268309423539 0  0.8363013936173391 0.5482699873544935 0  0.8251637397763597 0.5648936205678837 0  0.8136956965509062 0.5812910746042258 0  0.8019018556596399 0.5974557840456699 0  0.7897869392681683 0.6133812766635599 0  0.777355798098326 0.6290611760098652 0  0.7646134094859813 0.6444892039702628 0  0.7515648753881492 0.6596591832778468 0  0.7382154203402046 0.6745650399864606 0  0.7245703893640189 0.6892008059026586 0  0.7106352458278521 0.7035606209753273 0  0.6964155692588616 0.7176387356420051 0  0.6819170531091018 0.7314295131309636 0  0.6671455024759069 0.7449274317181303 0  0.6521068317775753 0.7581270869379442 0  0.6368070623852795 0.7710231937472638 0  0.6212523202121545 0.7836105886414595 0  0.6054488332605282 0.795884231721841 0  0.5894029291282759 0.8078392087135958 0  0.5731210324752972 0.8194707329334278 0  0.5566096624511305 0.8307741472061095 0  0.5398754300847343 0.8417449257291802 0  0.5229250356374803 0.8523786758850435 0  0.5057652659204196 0.8626711399997378 0  0.4884029915768944 0.8726181970476778 0  0.4708451643315825 0.8822158643016828 0  0.45309881420708 0.8914602989276292 0  0.4351710467091336 0.9003477995230937 0  0.4170690399816468 0.9088748075993677 0  0.398800041932607 0.9170379090062476 0  0.3803713673320772 0.9248338352990368 0  0.3617903948834157 0.9322594650472057 0  0.3430645642688987 0.9393118250841893 0  0.3242013731709288 0.9459880916978206 0  0.3052083742700172 0.952285591760924 0  0.2860931722207478 0.9582018038016155 0  0.2668634206069304 0.963734359012881 0  0.2475268188771628 0.9688810422010291 0  0.2280911092620296 0.9736397926726377 0  0.2085640736741707 0.9780087050596407 0  0.1889535305924618 0.9819860300822225 0  0.1692673319315541 0.9855701752492174 0  0.1495133598980264 0.9887597054957302 0  0.1296995238344084 0.9915533437577263 0  0.1098337570523395 0.9939499714833577 0  0.08992401365612977 0.9959486290808237 0  0.06997826535799723 0.9975485163025836 0  0.05000449828625179 0.9987489925657699 0  0.03001070978771124 0.9995495772086734 0  0.01000490522562346 0.9999499496831961 0  -0.01000490522562333 0.9999499496831961 0  -0.03001070978771133 0.9995495772086734 0  -0.05000449828625144 0.9987489925657699 0  -0.06997826535799688 0.9975485163025836 0  -0.08992401365612987 0.9959486290808237 0  -0.1098337570523394 0.9939499714833577 0  -0.1296995238344082 0.9915533437577263 0  -0.1495133598980262 0.9887597054957303 0  -0.1692673319315537 0.9855701752492174 0  -0.1889535305924614 0.9819860300822226 0  -0.2085640736741705 0.9780087050596407 0  -0.2280911092620295 0.9736397926726377 0  -0.2475268188771627 0.9688810422010291 0  -0.2668634206069302 0.9637343590128811 0  -0.2860931722207475 0.9582018038016156 0  -0.3052083742700173 0.9522855917609239 0  -0.3242013731709289 0.9459880916978205 0  -0.3430645642688986 0.9393118250841894 0  -0.3617903948834154 0.9322594650472058 0  -0.380371367332077 0.924833835299037 0  -0.3988000419326071 0.9170379090062476 0  -0.4170690399816465 0.9088748075993678 0  -0.4351710467091335 0.9003477995230939 0  -0.4530988142070799 0.8914602989276292 0  -0.4708451643315824 0.8822158643016829 0  -0.4884029915768945 0.8726181970476778 0  -0.5057652659204197 0.8626711399997378 0  -0.5229250356374801 0.8523786758850437 0  -0.5398754300847342 0.8417449257291804 0  -0.5566096624511303 0.8307741472061098 0  -0.5731210324752971 0.8194707329334279 0  -0.589402929128276 0.8078392087135957 0  -0.6054488332605281 0.7958842317218411 0  -0.6212523202121542 0.7836105886414597 0  -0.6368070623852793 0.7710231937472639 0  -0.652106831777575 0.7581270869379444 0  -0.6671455024759069 0.7449274317181304 0  -0.6819170531091018 0.7314295131309636 0  -0.6964155692588616 0.7176387356420052 0  -0.7106352458278521 0.7035606209753273 0  -0.7245703893640187 0.6892008059026588 0  -0.7382154203402043 0.6745650399864608 0  -0.751564875388149 0.6596591832778469 0  -0.7646134094859813 0.6444892039702628 0  -0.7773557980983258 0.6290611760098654 0  -0.7897869392681683 0.6133812766635599 0  -0.8019018556596398 0.59745578404567 0  -0.8136956965509062 0.5812910746042258 0  -0.8251637397763595 0.5648936205678839 0  -0.836301393617339 0.5482699873544935 0  -0.8471041986406197 0.5314268309423542 0  -0.8575678294839372 0.5143708952052097 0  -0.8676880965878292 0.497109009212054 0  -0.8774609478731045 0.4796480844928216 0  -0.8868824703632656 0.4619951122710621 0  -0.8959488917512338 0.4441571606647088 0  -0.904656581909754 0.426141371856055 0  -0.9130020543448703 0.4079549592320783 0  -0.920981967591891 0.3896052044962555 0  -0.9285931265532872 0.3710994547530226 0  -0.9358324837779861 0.3524451195660473 0  -0.9426971406815462 0.3336496679914984 0  -0.9491843487067303 0.3147206255874888 0  -0.9552915104240065 0.2956655714008993 0  -0.9610161805715396 0.2764921349327862 0  -0.9663560670342555 0.2572079930835851 0  -0.9713090317615876 0.2378208670793361 0  -0.9758730916235353 0.2183385193801658 0  -0.9800464192046954 0.198768750572253 0  -0.9838273435359444 0.1791193962445354 0  -0.987214350763483 0.159398323851397 0  -0.9902060847549714 0.1396134295625972 0  -0.9928013476425149 0.1197726351017052 0  -0.9949991003022804 0.09988388457430147 0  -0.9967984627705549 0.07995514128721509 0  -0.9981987145960756 0.05999438456007793 0  -0.9991992951284931 0.04000960653046362 0  -0.9997998037428526 0.02000880895389464 0  -1 1.224646799147353e-16 0  -0.9997998037428526 -0.0200088089538944 0  -0.9991992951284931 -0.04000960653046338 0  -0.9981987145960756 -0.05999438456007812 0  -0.9967984627705549 -0.07995514128721484 0  -0.9949991003022806 -0.09988388457430078 0  -0.9928013476425149 -0.1197726351017049 0  -0.9902060847549715 -0.1396134295625965 0  -0.9872143507634831 -0.1593983238513963 0  -0.9838273435359444 -0.1791193962445356 0  -0.9800464192046953 -0.1987687505722532 0  -0.9758730916235354 -0.2183385193801655 0  -0.9713090317615876 -0.2378208670793363 0  -0.9663560670342556 -0.2572079930835848 0  -0.9610161805715396 -0.276492134932786 0  -0.9552915104240066 -0.2956655714008991 0  -0.9491843487067305 -0.3147206255874881 0  -0.9426971406815464 -0.3336496679914978 0  -0.9358324837779862 -0.3524451195660471 0  -0.9285931265532875 -0.371099454753022 0  -0.9209819675918909 -0.3896052044962557 0  -0.9130020543448704 -0.407954959232078 0  -0.9046565819097541 -0.4261413718560548 0  -0.8959488917512338 -0.4441571606647086 0  -0.8868824703632655 -0.4619951122710623 0  -0.8774609478731046 -0.4796480844928214 0  -0.8676880965878293 -0.4971090092120538 0  -0.8575678294839373 -0.5143708952052095 0  -0.84710419864062 -0.5314268309423537 0  -0.8363013936173395 -0.5482699873544929 0  -0.8251637397763596 -0.5648936205678838 0  -0.8136956965509061 -0.5812910746042259 0  -0.8019018556596399 -0.5974557840456699 0  -0.7897869392681682 -0.61338127666356 0  -0.777355798098326 -0.6290611760098652 0  -0.7646134094859816 -0.6444892039702625 0  -0.7515648753881492 -0.6596591832778468 0  -0.7382154203402048 -0.6745650399864603 0  -0.7245703893640192 -0.6892008059026583 0  -0.7106352458278522 -0.7035606209753272 0  -0.6964155692588621 -0.7176387356420046 0  -0.6819170531091017 -0.7314295131309637 0  -0.667145502475907 -0.7449274317181303 0  -0.6521068317775756 -0.758127086937944 0  -0.6368070623852792 -0.7710231937472641 0  -0.6212523202121544 -0.7836105886414596 0  -0.6054488332605283 -0.795884231721841 0  -0.5894029291282762 -0.8078392087135956 0  -0.5731210324752977 -0.8194707329334274 0  -0.5566096624511304 -0.8307741472061095 0  -0.5398754300847344 -0.8417449257291802 0  -0.5229250356374798 -0.8523786758850437 0  -0.5057652659204195 -0.8626711399997379 0  -0.4884029915768943 -0.872618197047678 0  -0.4708451643315825 -0.8822158643016828 0  -0.4530988142070805 -0.8914602989276289 0  -0.4351710467091333 -0.900347799523094 0  -0.4170690399816467 -0.9088748075993677 0  -0.3988000419326073 -0.9170379090062475 0  -0.3803713673320777 -0.9248338352990366 0  -0.3617903948834162 -0.9322594650472055 0  -0.3430645642688988 -0.9393118250841893 0  -0.3242013731709283 -0.9459880916978207 0  -0.3052083742700169 -0.9522855917609241 0  -0.2860931722207477 -0.9582018038016155 0  -0.2668634206069305 -0.963734359012881 0  -0.2475268188771631 -0.968881042201029 0  -0.2280911092620301 -0.9736397926726376 0  -0.2085640736741706 -0.9780087050596407 0  -0.1889535305924619 -0.9819860300822225 0  -0.1692673319315544 -0.9855701752492173 0  -0.1495133598980269 -0.9887597054957302 0  -0.1296995238344092 -0.9915533437577262 0  -0.1098337570523396 -0.9939499714833577 0  -0.08992401365612945 -0.9959486290808237 0  -0.06997826535799691 -0.9975485163025836 0  -0.05000449828625168 -0.9987489925657699 0  -0.030010709787
[...]
<PointData  Scalars="Displacement"> 
<DataArray  type="Float64"  Name="Displacement"  format="ascii">0.0000000000000000e+00  0.0000000000000000e+00  0.0000000000000000e+00  0.0000000000000000e+00  0.0000000000000000e+00  0.0000000000000000e+00  0.0000000000000000e+00  0.0000000000000000e+00  0.0000000000000000e+00  0.0000000000000000e+00  0.0000000000000000e+00  0.0000000000000000e+00  0.0000000000000000e+00  0.0000000000000000e+00  0.0000000000000000e+00  0.0000000000000000e+00  0.0000000000000000e+00  0.0000000000000000e+00  0.0000000000000000e+00  0.0000000000000000e+00  0.0000000000000000e+00  0.0000000000000000e+00  0.0000000000000000e+00  0.0000000000000000e+00  0.0000000000000000e+00  0.0000000000000000e+00  0.0000000000000000e+00  0.0000000000000000e+00  0.0000000000000000e+00  0.0000000000000000e+00  0.0000000000000000e+00  0.0000000000000000e+00  0.0000000000000000e+00  0.0000000000000000e+00  0.0000000000000000e+00  0.0000000000000000e+00  0.0000000000000000e+00  0.0000000000000000e+00  0.0000000000000000e+00  0.0000000000000000e+00  0.0000000000000000e+00  0.0000000000000000e+00  0.0000000000000000e+00  0.0000000000000000e+00  0.0000000000000000e+00  0.0000000000000000e+00  0.0000000000000000e+00  0.0000000000000000e+00  0.0000000000000000e+00  0.0000000000000000e+00  0.0000000000000000e+00  0.0000000000000000e+00  0.0000000000000000e+00  0.0000000000000000e+00  0.0000000000000000e+00  0.0000000000000000e+00  0.0000000000000000e+00  0.0000000000000000e+00  0.0000000000000000e+00  0.0000000000000000e+00  0.0000000000000000e+00  0.0000000000000000e+00  0.0000000000000000e+00  0.0000000000000000e+00  0.0000000000000000e+00  0.0000000000000000e+00  0.0000000000000000e+00  0.0000000000000000e+00  0.0000000000000000e+00  0.0000000000000000e+00  0.0000000000000000e+00  0.0000000000000000e+00  0.0000000000000000e+00  0.0000000000000000e+00  0.0000000000000000e+00  0.0000000000000000e+00  0.0000000000000000e+00  0.0000000000000000e+00  0.0000000000000000e+00  0.0000000000000000e+00  0.0000000000000000e+00  0.0000000000000000e+00  0.0000000000000000e+00  0.0000000000000000e+00  0.0000000000000000e+00  0.0000000000000000e+00  0.0000000000000000e+00  0.0000000000000000e+00  0.0000000000000000e+00  0.0000000000000000e+00  0.0000000000000000e+00  0.0000000000000000e+00  0.0000000000000000e+00  0.0000000000000000e+00  0.0000000000000000e+00  0.0000000000000000e+00  0.0000000000000000e+00  0.0000000000000000e+00  0.0000000000000000e+00  0.0000000000000000e+00  0.0000000000000000e+00  0.0000000000000000e+00  0.0000000000000000e+00  0.0000000000000000e+00  0.0000000000000000e+00  0.0000000000000000e+00  0.0000000000000000e+00  0.0000000000000000e+00  0.0000000000000000e+00  0.0000000000000000e+00  0.0000000000000000e+00  0.0000000000000000e+00  0.0000000000000000e+00  0.0000000000000000e+00  0.0000000000000000e+00  0.0000000000000000e+00  0.0000000000000000e+00  0.0000000000000000e+00  0.0000000000000000e+00  0.0000000000000000e+00  0.0000000000000000e+00  0.0000000000000000e+00  0.0000000000000000e+00  0.0000000000000000e+00  0.0000000000000000e+00  0.0000000000000000e+00  0.0000000000000000e+00  0.0000000000000000e+00  0.0000000000000000e+00  0.0000000000000000e+00  0.0000000000000000e+00  0.0000000000000000e+00  0.0000000000000000e+00  0.0000000000000000e+00  0.0000000000000000e+00  0.0000000000000000e+00  0.0000000000000000e+00  0.0000000000000000e+00  0.0000000000000000e+00  0.0000000000000000e+00  0.0000000000000000e+00  0.0000000000000000e+00  0.0000000000000000e+00  0.0000000000000000e+00  0.0000000000000000e+00  0.0000000000000000e+00  0.0000000000000000e+00  0.0000000000000000e+00  0.0000000000000000e+00  0.0000000000000000e+00  0.0000000000000000e+00  0.0000000000000000e+00  0.0000000000000000e+00  0.0000000000000000e+00  0.0000000000000000e+00  0.0000000000000000e+00  0.0000000000000000e+00  0.0000000000000000e+00  0.0000000000000000e+00  0.0000000000000000e+00  0.0000000000000000e+00  0.0000000000000000e+00  0.0000000000000000e+00  0.0000000000000000e+00  0.0000000000000000e+00  0.0000000000000000e+00  0.0000000000000000e+00  0.0000000000000000e+00  0.0000000000000000e+00  0.0000000000000000e+00  0.0000000000000000e+00  0.0000000000000000e+00  0.0000000000000000e+00  0.0000000000000000e+00  0.0000000000000000e+00  0.0000000000000000e+00  0.0000000000000000e+00  0.0000000000000000e+00  0.0000000000000000e+00  0.0000000000000000e+00  0.0000000000000000e+00  0.0000000000000000e+00  0.0000000000000000e+00  0.0000000000000000e+00  0.0000000000000000e+00  0.0000000000000000e+00  0.0000000000000000e+00  0.0000000000000000e+00  0.0000000000000000e+00  0.0000000000000000e+00  0.0000000000000000e+00  0.0000000000000000e+00  0.0000000000000000e+00  0.0000000000000000e+00  0.0000000000000000e+00  0.0000000000000000e+00  0.0000000000000000e+00  0.0000000000000000e+00  0.0000000000000000e+00  0.0000000000000000e+00  0.0000000000000000e+00  0.0000000000000000e+00  0.0000000000000000e+00  0.0000000000000000e+00  0.0000000000000000e+00  0.0000000000000000e+00  0.0000000000000000e+00  0.0000000000000000e+00  0.0000000000000000e+00  0.0000000000000000e+00  0.0000000000000000e+00  0.0000000000000000e+00  0.0000000000000000e+00  0.0000000000000000e+00  0.0000000000000000e+00  0.0000000000000000e+00  0.0000000000000000e+00  0.0000000000000000e+00  0.0000000000000000e+00  0.0000000000000000e+00  0.0000000000000000e+00  0.0000000000000000e+00  0.0000000000000000e+00  0.0000000000000000e+00  0.0000000000000000e+00  0.0000000000000000e+00  0.0000000000000000e+00  0.0000000000000000e+00  0.0000000000000000e+00  0.0000000000000000e+00  0.0000000000000000e+00  0.0000000000000000e+00  0.0000000000000000e+00  0.0000000000000000e+00  0.0000000000000000e+00  0.0000000000000000e+00  0.0000000000000000e+00  0.0000000000000000e+00  0.0000000000000000e+00  0.0000000000000000e+00  0.0000000000000000e+00  0.0000000000000000e+00  0.0000000000000000e+00  0.0000000000000000e+00  0.0000000000000000e+00  0.0000000000000000e+00  0.0000000000000000e+00  0.0000000000000000e+00  0.0000000000000000e+00  0.0000000000000000e+00  0.0000000000000000e+00  0.0000000000000000e+00  0.0000000000000000e+00  0.0000000000000000e+00  0.0000000000000000e+00  0.0000000000000000e+00  0.0000000000000000e+00  0.0000000000000000e+00  0.0000000000000000e+00  0.0000000000000000e+00  0.0000000000000000e+00  0.0000000000000000e+00  0.0000000000000000e+00  0.0000000000000000e+00  0.0000000000000000e+00  0.0000000000000000e+00  0.0000000000000000e+00  0.0000000000000000e+00  0.0000000000000000e+00  0.0000000000000000e+00  0.0000000000000000e+00  0.0000000000000000e+00  0.0000000000000000e+00  0.0000000000000000e+00  0.0000000000000000e+00  0.0000000000000000e+00  0.0000000000000000e+00  0.0000000000000000e+00  0.0000000000000000e+00  0.0000000000000000e+00  0.0000000000000000e+00  0.0000000000000000e+00  0.0000000000000000e+00  0.0000000000000000e+00  0.0000000000000000e+00  0.0000000000000000e+00  0.0000000000000000e+00  0.0000000000000000e+00  0.0000000000000000e+00  0.0000000000000000e+00  0.0000000000000000e+00  0.0000000000000000e+00  0.0000000000000000e+00  0.0000000000000000e+00  0.0000000000000000e+00  0.0000000000000000e+00  0.0000000000000000e+00  0.0000000000000000e+00  0.0000000000000000e+00  0.0000000000000000e+00  0.0000000000000000e+00  0.0000000000000000e+00  0.0000000000000000e+00  0.0000000000000000e+00  0.0000000000000000e+00  0.0000000000000000e+00  0.0000000000000000e+00  0.0000000000000000e+00  0.0000000000000000e+00  0.0000000000000000e+00  0.0000000000000000e+00  0.0000000000000000e+00  0.0000000000000000e+00  0.0000000000000000e+00  5.2308417440198075e-02  -4.2327748078813267e-02  -4.2323540466284143e-02  -4.2313893619328871e-02  -4.2335350646990962e-02  -4.2333279397206172e-02  -3.7911277805032291e-02  -3.0610873170486462e-02  -2.9028935865267832e-02  -2.5940731209652821e-02  -2.5938078773544270e-02  -2.2379101897908812e-02  -2.1755363578583063e-02  -2.1754168786895522e-02  -1.9142775830081761e-02  -1.6538563862992902e-02  -1.7749090548315315e-02  -1.8125469449171410e-02  -1.7540297041598398e-02  -1.7377207421309809e-02  -1.6526613088020659e-02  -1.6467410325427645e-02  -1.6733998372284977e-02  -3.9464748212776339e-02  -3.9460193517213381e-02  -4.6515206168757442e-03  -1.8705993548989986e-02  -1.3320142155695474e-02  -1.4062547699541999e-02  -4.2784031023440423e-02  -1.3885707934501878e-02  -1.3110549214656032e-02  7.5301397213128809e-03  -4.2598077667179303e-02  -1.2450783063580335e-02  -1.0654989092873978e-02  -1.0363757875289308e-02  -1.0195546303376291e-02  -1.0161698691685416e-02  -3.9365814163431531e-02  -3.8826211694276018e-02  -3.8165847236447406e-02  -3.7906896249101957e-02  1.5908652977695219e-02  -9.6491288864237554e-03  -9.3603696487973755e-03  -9.0386119941120151e-03  -9.0425558287644033e-03  -3.5535775407137336e-02  -3.6219271069882208e-02  -2.4224963186619066e-02  -3.9539961551129155e-02  -3.7304096656243770e-02  -4.2798518113377655e-02  -7.9336775022100202e-03  1.9740354741228584e-02  -9.2261422974040854e-03  -7.9405275658420010e-03  -2.7954169020392838e-02  -7.6921435777432693e-03  -7.8118016350474948e-03  -2.6419060412226605e-02  -7.5830149639874818e-03  -8.0153018373214351e-03  -2.7985687534687730e-02  -3.7691472261804524e-03  -3.8627722618625661e-02  -4.2809142810349275e-02  -3.8065620566960369e-02  2.7033682527887161e-02  -2.7598195497212038e-02  -3.5822100555788917e-02  -3.1333018716211997e-02  -3.2634105720893869e-02  -3.2716448043088243e-02  -3.3693222307982246e-02  -7.4149342951793529e-03  -4.1060185154576274e-02  -3.3350026437419855e-02  -2.7423960404128075e-02  -6.8945542228720739e-03  -3.9949045573641283e-02  -6.6774028474137059e-03  -6.7948229754030516e-03  -6.4479896566812306e-03  3.0494235482909846e-02  -6.6077158272344920e-03  -6.3046651441775996e-03  -6.3170183351783423e-03  -3.7741752315204810e-02  -2.4621002768953050e-02  -6.0954388304058828e-03  -3.1585483436937248e-02  -6.0204812788451426e-03  -2.4703637655043912e-02  1.7961077895131895e-02  -6.6325018902185645e-03  -5.8664521394721702e-03  -2.3663762914001910e-02  -2.1345797234840820e-02  -2.8283207717774057e-02  -2.3665785084731602e-02  -5.8445318532228648e-03  -4.2622938136340410e-02  -4.0273668503175257e-02  -4.0270201842859898e-02  -4.2156113755647033e-02  -2.1352832043090138e-02  -2.2828684013363947e-02  -5.2293959884203225e-03  -4.1763954641369838e-02  -5.1740369502323302e-03  -5.4252702558437761e-03  -3.5111163749420339e-02  -3.4053213298849340e-02  -2.0799882071012032e-02  -4.9949830016351223e-03  -5.6845892387683474e-03  -5.5659908230371990e-03  2.7223148679418229e-02  -4.2499121933316397e-02  -1.5057072567447150e-02  -1.7483220304443162e-02  -7.8029856840155084e-03  -1.8653534583993738e-02  -2.5809132323015013e-02  -5.5266515732326138e-03  -4.8148042986422539e-03  -1.7913104702031831e-02  -1.8194082023122789e-02  -2.6156672470495336e-02  -1.8896729722776728e-02  -3.1298383650196736e-02  -4.2810230609265955e-02  -3.5599119682878815e-02  -2.1413239993082134e-02  -5.3028927550837360e-03  -1.4677821238429305e-02  -3.7376814961252364e-02  -2.5660301741136048e-02  3.9009681499834255e-02  -1.4432926510085471e-02  -1.3478563873769318e-02  -4.1729168743762715e-02  -3.4974374626043810e-02  -1.3607821291293691e-02  -1.4212002611624669e-02  -2.0945945339463295e-02  1.5200937437778724e-02  -2.9457259239527030e-02  -4.2609250674572937e-03  -3.4537708300945734e-02  -3.7782940636741452e-02  -1.5515866767007638e-02  -1.5516734628068145e-02  -8.0122147650362741e-03  -4.0567007657216370e-03  -1.4302205077130653e-02  -4.3770386800155853e-03  -4.0978643089803575e-03  -4.1196660211850668e-03  -1.3815686448209926e-02  -2.7473762345678984e-02  -4.4124312064009533e-03  -1.1192788728986620e-02  -4.1916892835288287e-02  -1.5632235215487289e-02  -5.7193909530429583e-03  -4.0234778148291782e-03  -1.3594121855750091e-02  -3.6399357610802825e-02  4.0956891667618019e-02  -1.3776547496810558e-02  -3.8831361617794644e-02  -3.8702499185789664e-03  -4.2774902148942612e-02  -3.7910087501606838e-03  -1.6847281654753552e-02  -3.8792725732195439e-03  -4.2682465310881913e-02  -1.2894763024417834e-02  -4.0955708480701056e-02  -3.5614639783297819e-02  -1.2564585160771656e-03  -4.3005101423833460e-03  -3.9590661361084981e-02  -2.9106330831878253e-02  -4.2626645479540488e-02  -3.9453382577957904e-03  -9.8866957807998632e-03  -4.0407846760277862e-03  1.5575931977847535e-02  -3.6730434578421483e-03  -3.9358303389050876e-03  -4.0866488779075151e-02  -3.0209299166080450e-02  -1.6120409584577469e-02  -1.2376520259163901e-02  -4.1849780509836058e-02  -2.7368348180342891e-02  -3.4235000441904237e-02  -3.6682095527389630e-02  -4.2445521165745341e-02  -2.8575696306090682e-02  -3.4164074256410201e-02  -1.2288039096082472e-02  -1.2111712062314827e-02  -8.2383947992520617e-03  -6.6534318704220908e-03  -1.2085839891910921e-02  -1.7418227560259333e-02  1.1885858274709964e-02  4.2141988112580110e-02  -3.6718961422972088e-03  -3.6005540133188002e-03  -1.3933133281079074e-02  -4.2774152113178317e-02  -3.8642410964701735e-03  -2.9339820127955128e-02  -2.6447042143107041e-02  -8.3039891000951625e-03  -2.4094849209157734e-02  -4.1123952096454162e-02  -3.0767375831798192e-02  -2.6689913131105133e-02  -3.8931385385904704e-03  -2.1335720296410361e-02  -3.3451406752327498e-03  -2.6536979974445304e-02  -3.5592964549441696e-03  -4.8675792837383795e-03  -3.9421440982506965e-03  -3.3406964208191540e-03  -9.3105227795716207e-03  -3.4887434178188770e-03  -4.2768620889290496e-02  -3.4584469013171935e-02  -1.0622988515073565e-02  -1.0889153161392950e-02  -1.1799307044720507e-02  -2.5065349699555161e-02  -2.8867932557141159e-02  -3.2010751551267466e-02  -4.9334586319320275e-03  -4.2166790878463027e-02  -3.3448652897142251e-03  -3.3447755964964650e-03  -3.3155051908969535e-03  -3.6948886875649262e-02  -4.2747639677241309e-02  -3.8692643882875688e-02  -3.9254855128584155e-02  -1.7612750941380508e-02  4.2005855381244996e-02  -9.9231066387544236e-03  -3.9751499971668186e-02  -1.4363104479546741e-02  -3.9888978566811152e-02  -4.4585861710358570e-03  -3.2280771905733897e-03  -4.5132523163868288e-03  -2.1636866506961058e-02  -1.0875634198844368e-02  -3.5930998464871203e-02  -4.2788535824713717e-02  -4.0455949936339733e-02  -9.3482828877022254e-03  -5.3079878242887355e-03  -4.5103452711829032e-03  -3.5945750472158457e-02  -3.0754885629929655e-03  -3.7463559523104380e-02  -4.2807273019069808e-02  -1.6449608672482196e-02  -1.2218808839437163e-02  -2.1998382158963322e-02  -3.2337920162315723e-02  -2.8520937148248760e-02  -3.8203510048379435e-02  -3.4671574353588148e-02  -2.6030276478483466e-02  -3.5463005249389947e-03  2.0195216741883877e-03  -2.6952030533494407e-02  -2.2168456146341928e-02  -1.7618227578471306e-02  -2.5527802400126778e-02  -3.3742856201519548e-03  -1.1073174280680354e-02  -4.1123455669078712e-02  5.2128617449064799e-04  -4.2810451788421598e-02  -2.8611191569093641e-02  -3.7828645682366387e-02  7.9583273719761767e-03  -2.9775665857700345e-03  -3.9276329243177699e-02  -3.0928952891807358e-03  -3.1396261597299953e-03  -3.2573589419686243e-03  1.8472813041739894e-02  4.3921511605778757e-02  -2.8792583974314237e-02  -8.5983668496228422e-03  -2.3975602731290797e-02  -3.0996132243968123e-02  -1.9098706929473731e-02  -3.4998726434904114e-02  -2.6815113114841967e-02  -2.9005100498186789e-02  -3.9624636954374147e-02  -2.7340917815228787e-02  -2.5795523066096920e-02  -1.6012893317441046e-02  2.0942359462313171e-03  -4.9639611705643173e-03  -3.6411479763553342e-02  -1.9171476009062015e-02  -2.2780298427930341e-02  -2.9998588961545830e-03  -1.2873838884971775e-02  -1.3843529481108161e-02  -2.8760754158828599e-03  -3.4427185798459499e-02  -2.8857066092843361e-03  -2.8269383075005565e-03  -9.2041529369036590e-03  -4.1244936756958742e-02  -3.7407774743055983e-02  -1.9225884735628428e-02  -2.8708892965546564e-03  -1.9292584890391051e-02  -2.7342194704219700e-02  -4.1495539717085063e-02  -3.2779755470821591e-02  -1.7348288892890994e-02  -4.2158810208244323e-02  -3.4291691374085560e-02  -4.3893929136788797e-03  -2.4071922365621091e-02  -1.1869918905130271e-02  -4.2307549758714640e-02  -8.5329394440929081e-03  -7.8718911989267577e-03  -2.4152608424695066e-02  -2.9057410291534668e-03  -1.1601825048805329e-02  -1.3747476036616364e-02  -2.8334227309700240e-03  -2.3676710619785799e-02  -2.4308442333654621e-02  -2.7596849562385858e-03  -8.4210543886295529e-03  -2.6839221831677787e-03  -1.0102404390126218e-02  -8.4754910351657279e-03  -3.8589838445399774e-02  4.5868162589222862e-02  -8.1799892878610184e-03  1.9192192645193461e-02  9.2115133301620741e-03  -1.5920354686307505e-02  -2.8026196646931626e-03  -3.4052144969437703e-02  -8.0868133755949041e-03  -2.9687136611661613e-02  -8.1021880989034893e-03  -2.1246634147063008e-02  3.6032128835385591e-02  -1.1122575812555225e-02  -2.6535693785992298e-03  -4.0139412452087240e-03  -1.1320307724766249e-02  -3.7330490686846990e-02  -4.2578547052523244e-02  -2.1097213397672995e-02  -3.8636767077319580e-03  2.4533608648025219e-02  -3.3507258589449744e-02  -2.6625509113693095e-03  -4.0703709464195825e-02  -2.6106999050647100e-03  -1.0139921369902915e-02  -4.2152472512885918e-02  -3.0663662867717848e-03  -3.1319148195095778e-03  -2.5298530366767232e-03  -1.1397521834409686e-02  -2.6472807285559657e-03  -4.1437684747233451e-02  -3.6099173319960182e-02  -2.4047883516334679e-02  -3.6478142772598927e-02  -2.6349470973719212e-03  -1.0161321292033254e-02  -4.1364605828920264e-02  -3.9420559690301277e-03  -3.2325558885445714e-02  -1.6770449487333167e-02  -2.6202419990275080e-03  -2.6164898483082180e-03  -3.9302228095364086e-02  -7.0978227426513061e-03  -4.2822701835868573e-02  -1.7362487440477203e-02  -3.9750356556417510e-02  -3.5605457227666094e-02  -2.5325294426831691e-03  -9.4466889751840723e-03  -1.1078377726451304e-02  -7.4041254329480248e-03  -7.4883107711399355e-03  -4.2570153700997981e-02  -3.7768220572450703e-02  2.5582396019850377e-03  -3.8480507827707490e-02  -1.0634156712695172e-02  -1.8770884106455006e-02  -4.2511047094659596e-02  -9.7946270355371099e-03  -2.4164164336737200e-03  -4.0795657824016030e-03  -3.1272909253423437e-02  -2.6381499035566847e-02  -1.7826628135421779e-02  -3.9016840248941066e-02  -1.8889006433539739e-02  -2.4273404081506193e-03  -2.3936327545671476e-03  -3.3535934180739723e-03  -2.6560069468256370e-02  -8.3488061401264021e-03  -1.6185250108933222e-02  -7.5195445058588222e-03  -9.1632949729004032e-03  -9.0516616973422542e-03  -3.1294839140452002e-02  -1.0815163024974289e-02  -4.2277846424779705e-02  -3.4123483894256804e-02  -3.8070588441125028e-02  -3.3609039517567614e-02  -4.1044827901358487e-02  -4.1785045899069603e-02  -7.2766462697776415e-03  -4.2227126812831389e-02  -1.4689389851546285e-02  3.3132276697044695e-02  -2.8930602512524467e-02  -4.2174537870469722e-02  -4.0089959203492627e-02  -4.0582114018323692e-02  -7.0210482451447745e-03  -2.4349870067559092e-03  -2.4833583477172705e-03  -1.5774123462097313e-02  -2.3546124576946485e-02  -4.1416966866122576e-02  -4.2344227007831414e-02  -5.5484636800437600e-03  -3.4270148049211947e-02  -2.3874235788561592e-03  -1.6480230535130048e-03  -2.9155620808026226e-02  -4.2619895606194086e-02  -1.5835768517487886e-02  -9.0595376282984856e-03  -7.1881832415260291e-03  -1.8370207055159550e-02  -1.9319440612036939e-02  -3.6176925661234330e-02  -6.5312650450245853e-03  -4.2674209961222447e-02  -4.1364341581233276e-02  -1.0996213246657461e-02  -7.9329623212003866e-04  -1.9722194982152264e-02  -4.1524015052800886e-02  -2.1850056619212258e-02  -3.0307962837922142e-02  -2.6918231030038091e-02  -1.5445662421769722e-02  -2.2342819713424109e-03  -8.5589233927748937e-03  -2.2895976400526532e-03  -6.4792059755067917e-03  -4.2694033373496879e-03  -3.4941563269163242e-02  -1.2591283292526189e-02  -3.5110565245882248e-02  -1.5230872741873179e-02  -4.2144863513793540e-02  -3.6505792938247836e-02  -3.0737762978139467e-02  -4.1788685332177595e-03  -4.2276592328671