<?xml version="1.0"?>
<VTKFile type="UnstructuredGrid"  version="0.1"  >
<UnstructuredGrid>
<Piece  NumberOfPoints="20054" NumberOfCells="39478">
<Points>
<DataArray  type="Float64"  NumberOfComponents="3"  format="ascii">1 0 0  0.9997998037428526 0.02000880895389431 0  0.9991992951284931 0.04000960653046352 0  0.9981987145960756 0.05999438456007805 0  0.9967984627705549 0.07995514128721501 0  0.9949991003022806 0.09988388457430118 0  0.9928013476425149 0.1197726351017051 0  0.9902060847549715 0.139613429562597 0  0.987214350763483 0.1593983238513969 0  0.9838273435359444 0.1791193962445356 0  0.9800464192046954 0.198768750572253 0  0.9758730916235354 0.2183385193801655 0  0.9713090317615876 0.237820867079336 0  0.9663560670342555 0.2572079930835849 0  0.9610161805715396 0.2764921349327862 0  0.9552915104240066 0.2956655714008991 0  0.9491843487067304 0.3147206255874884 0  0.9426971406815462 0.3336496679914983 0  0.9358324837779861 0.3524451195660473 0  0.9285931265532873 0.3710994547530225 0  0.9209819675918909 0.3896052044962556 0  0.9130020543448703 0.4079549592320781 0  0.9046565819097542 0.4261413718560547 0  0.8959488917512338 0.4441571606647087 0  0.8868824703632656 0.4619951122710622 0  0.8774609478731046 0.4796480844928215 0  0.8676880965878291 0.4971090092120542 0  0.8575678294839372 0.5143708952052096 0  0.8471041986406199 0.5314268309423539 0  0.8363013936173391 0.5482699873544935 0  0.8251637397763597 0.5648936205678837 0  0.8136956965509062 0.5812910746042258 0  0.8019018556596399 0.5974557840456699 0  0.7897869392681683 0.6133812766635599 0  0.777355798098326 0.6290611760098652 0  0.7646134094859813 0.6444892039702628 0  0.7515648753881492 0.6596591832778468 0  0.7382154203402046 0.6745650399864606 0  0.7245703893640189 0.6892008059026586 0  0.7106352458278521 0.7035606209753273 0  0.6964155692588616 0.7176387356420051 0  0.6819170531091018 0.7314295131309636 0  0.6671455024759069 0.7449274317181303 0  0.6521068317775753 0.7581270869379442 0  0.6368070623852795 0.7710231937472638 0  0.6212523202121545 0.7836105886414595 0  0.6054488332605282 0.795884231721841 0  0.5894029291282759 0.8078392087135958 0  0.5731210324752972 0.8194707329334278 0  0.5566096624511305 0.8307741472061095 0  0.5398754300847343 0.8417449257291802 0  0.5229250356374803 0.8523786758850435 0  0.5057652659204196 0.8626711399997378 0  0.4884029915768944 0.8726181970476778 0  0.4708451643315825 0.8822158643016828 0  0.45309881420708 0.8914602989276292 0  0.4351710467091336 0.9003477995230937 0  0.4170690399816468 0.9088748075993677 0  0.398800041932607 0.9170379090062476 0  0.3803713673320772 0.9248338352990368 0  0.3617903948834157 0.9322594650472057 0  0.3430645642688987 0.9393118250841893 0  0.3242013731709288 0.9459880916978206 0  0.3052083742700172 0.952285591760924 0  0.2860931722207478 0.9582018038016155 0  0.2668634206069304 0.963734359012881 0  0.2475268188771628 0.9688810422010291 0  0.2280911092620296 0.9736397926726377 0  0.2085640736741707 0.9780087050596407 0  0.1889535305924618 0.9819860300822225 0  0.1692673319315541 0.9855701752492174 0  0.1495133598980264 0.9887597054957302 0  0.1296995238344084 0.9915533437577263 0  0.1098337570523395 0.9939499714833577 0  0.08992401365612977 0.9959486290808237 0  0.06997826535799723 0.9975485163025836 0  0.05000449828625179 0.9987489925657699 0  0.03001070978771124 0.9995495772086734 0  0.01000490522562346 0.9999499496831961 0  -0.01000490522562333 0.9999499496831961 0  -0.03001070978771133 0.9995495772086734 0  -0.05000449828625144 0.9987489925657699 0  -0.06997826535799688 0.9975485163025836 0  -0.08992401365612987 0.9959486290808237 0  -0.1098337570523394 0.9939499714833577 0  -0.1296995238344082 0.9915533437577263 0  -0.1495133598980262 0.9887597054957303 0  -0.1692673319315537 0.9855701752492174 0  -0.1889535305924614 0.9819860300822226 0  -0.2085640736741705 0.9780087050596407 0  -0.2280911092620295 0.9736397926726377 0  -0.2475268188771627 0.9688810422010291 0  -0.2668634206069302 0.9637343590128811 0  -0.2860931722207475 0.9582018038016156 0  -0.3052083742700173 0.9522855917609239 0  -0.3242013731709289 0.9459880916978205 0  -0.3430645642688986 0.9393118250841894 0  -0.3617903948834154 0.9322594650472058 0  -0.380371367332077 0.924833835299037 0  -0.3988000419326071 0.9170379090062476 0  -0.4170690399816465 0.9088748075993678 0  -0.4351710467091335 0.9003477995230939 0  -0.4530988142070799 0.8914602989276292 0  -0.4708451643315824 0.8822158643016829 0  -0.4884029915768945 0.8726181970476778 0  -0.5057652659204197 0.8626711399997378 0  -0.5229250356374801 0.8523786758850437 0  -0.5398754300847342 0.8417449257291804 0  -0.5566096624511303 0.8307741472061098 0  -0.5731210324752971 0.8194707329334279 0  -0.589402929128276 0.8078392087135957 0  -0.6054488332605281 0.7958842317218411 0  -0.6212523202121542 0.7836105886414597 0  -0.6368070623852793 0.7710231937472639 0  -0.652106831777575 0.7581270869379444 0  -0.6671455024759069 0.7449274317181304 0  -0.6819170531091018 0.7314295131309636 0  -0.6964155692588616 0.7176387356420052 0  -0.7106352458278521 0.7035606209753273 0  -0.7245703893640187 0.6892008059026588 0  -0.7382154203402043 0.6745650399864608 0  -0.751564875388149 0.6596591832778469 0  -0.7646134094859813 0.6444892039702628 0  -0.7773557980983258 0.6290611760098654 0  -0.7897869392681683 0.6133812766635599 0  -0.8019018556596398 0.59745578404567 0  -0.8136956965509062 0.5812910746042258 0  -0.8251637397763595 0.5648936205678839 0  -0.836301393617339 0.5482699873544935 0  -0.8471041986406197 0.5314268309423542 0  -0.8575678294839372 0.5143708952052097 0  -0.8676880965878292 0.497109009212054 0  -0.8774609478731045 0.4796480844928216 0  -0.8868824703632656 0.4619951122710621 0  -0.8959488917512338 0.4441571606647088 0  -0.904656581909754 0.426141371856055 0  -0.9130020543448703 0.4079549592320783 0  -0.920981967591891 0.3896052044962555 0  -0.9285931265532872 0.3710994547530226 0  -0.9358324837779861 0.3524451195660473 0  -0.9426971406815462 0.3336496679914984 0  -0.9491843487067303 0.3147206255874888 0  -0.9552915104240065 0.2956655714008993 0  -0.9610161805715396 0.2764921349327862 0  -0.9663560670342555 0.2572079930835851 0  -0.9713090317615876 0.2378208670793361 0  -0.9758730916235353 0.2183385193801658 0  -0.9800464192046954 0.198768750572253 0  -0.9838273435359444 0.1791193962445354 0  -0.987214350763483 0.159398323851397 0  -0.9902060847549714 0.1396134295625972 0  -0.9928013476425149 0.1197726351017052 0  -0.9949991003022804 0.09988388457430147 0  -0.9967984627705549 0.07995514128721509 0  -0.9981987145960756 0.05999438456007793 0  -0.9991992951284931 0.04000960653046362 0  -0.9997998037428526 0.02000880895389464 0  -1 1.224646799147353e-16 0  -0.9997998037428526 -0.0200088089538944 0  -0.9991992951284931 -0.04000960653046338 0  -0.9981987145960756 -0.05999438456007812 0  -0.9967984627705549 -0.07995514128721484 0  -0.9949991003022806 -0.09988388457430078 0  -0.9928013476425149 -0.1197726351017049 0  -0.9902060847549715 -0.1396134295625965 0  -0.9872143507634831 -0.1593983238513963 0  -0.9838273435359444 -0.1791193962445356 0  -0.9800464192046953 -0.1987687505722532 0  -0.9758730916235354 -0.2183385193801655 0  -0.9713090317615876 -0.2378208670793363 0  -0.9663560670342556 -0.2572079930835848 0  -0.9610161805715396 -0.276492134932786 0  -0.9552915104240066 -0.2956655714008991 0  -0.9491843487067305 -0.3147206255874881 0  -0.9426971406815464 -0.3336496679914978 0  -0.9358324837779862 -0.3524451195660471 0  -0.9285931265532875 -0.371099454753022 0  -0.9209819675918909 -0.3896052044962557 0  -0.9130020543448704 -0.407954959232078 0  -0.9046565819097541 -0.4261413718560548 0  -0.8959488917512338 -0.4441571606647086 0  -0.8868824703632655 -0.4619951122710623 0  -0.8774609478731046 -0.4796480844928214 0  -0.8676880965878293 -0.4971090092120538 0  -0.8575678294839373 -0.5143708952052095 0  -0.84710419864062 -0.5314268309423537 0  -0.8363013936173395 -0.5482699873544929 0  -0.8251637397763596 -0.5648936205678838 0  -0.8136956965509061 -0.5812910746042259 0  -0.8019018556596399 -0.5974557840456699 0  -0.7897869392681682 -0.61338127666356 0  -0.777355798098326 -0.6290611760098652 0  -0.7646134094859816 -0.6444892039702625 0  -0.7515648753881492 -0.6596591832778468 0  -0.7382154203402048 -0.6745650399864603 0  -0.7245703893640192 -0.6892008059026583 0  -0.7106352458278522 -0.7035606209753272 0  -0.6964155692588621 -0.7176387356420046 0  -0.6819170531091017 -0.7314295131309637 0  -0.667145502475907 -0.7449274317181303 0  -0.6521068317775756 -0.758127086937944 0  -0.6368070623852792 -0.7710231937472641 0  -0.6212523202121544 -0.7836105886414596 0  -0.6054488332605283 -0.795884231721841 0  -0.5894029291282762 -0.8078392087135956 0  -0.5731210324752977 -0.8194707329334274 0  -0.5566096624511304 -0.8307741472061095 0  -0.5398754300847344 -0.8417449257291802 0  -0.5229250356374798 -0.8523786758850437 0  -0.5057652659204195 -0.8626711399997379 0  -0.4884029915768943 -0.872618197047678 0  -0.4708451643315825 -0.8822158643016828 0  -0.4530988142070805 -0.8914602989276289 0  -0.4351710467091333 -0.900347799523094 0  -0.4170690399816467 -0.9088748075993677 0  -0.3988000419326073 -0.9170379090062475 0  -0.3803713673320777 -0.9248338352990366 0  -0.3617903948834162 -0.9322594650472055 0  -0.3430645642688988 -0.9393118250841893 0  -0.3242013731709283 -0.9459880916978207 0  -0.3052083742700169 -0.9522855917609241 0  -0.2860931722207477 -0.9582018038016155 0  -0.2668634206069305 -0.963734359012881 0  -0.2475268188771631 -0.968881042201029 0  -0.2280911092620301 -0.9736397926726376 0  -0.2085640736741706 -0.9780087050596407 0  -0.1889535305924619 -0.9819860300822225 0  -0.1692673319315544 -0.9855701752492173 0  -0.1495133598980269 -0.9887597054957302 0  -0.1296995238344092 -0.9915533437577262 0  -0.1098337570523396 -0.9939499714833577 0  -0.08992401365612945 -0.9959486290808237 0  -0.06997826535799691 -0.9975485163025836 0  -0.05000449828625168 -0.9987489925657699 0  -0.030010709787
[...]
<PointData  Scalars="Displacement"> 
<DataArray  type="Float64"  Name="Displacement"  format="ascii">0.0000000000000000e+00  0.0000000000000000e+00  0.0000000000000000e+00  0.0000000000000000e+00  0.0000000000000000e+00  0.0000000000000000e+00  0.0000000000000000e+00  0.0000000000000000e+00  0.0000000000000000e+00  0.0000000000000000e+00  0.0000000000000000e+00  0.0000000000000000e+00  0.0000000000000000e+00  0.0000000000000000e+00  0.0000000000000000e+00  0.0000000000000000e+00  0.0000000000000000e+00  0.0000000000000000e+00  0.0000000000000000e+00  0.0000000000000000e+00  0.0000000000000000e+00  0.0000000000000000e+00  0.0000000000000000e+00  0.0000000000000000e+00  0.0000000000000000e+00  0.0000000000000000e+00  0.0000000000000000e+00  0.0000000000000000e+00  0.0000000000000000e+00  0.0000000000000000e+00  0.0000000000000000e+00  0.0000000000000000e+00  0.0000000000000000e+00  0.0000000000000000e+00  0.0000000000000000e+00  0.0000000000000000e+00  0.0000000000000000e+00  0.0000000000000000e+00  0.0000000000000000e+00  0.0000000000000000e+00  0.0000000000000000e+00  0.0000000000000000e+00  0.0000000000000000e+00  0.0000000000000000e+00  0.0000000000000000e+00  0.0000000000000000e+00  0.0000000000000000e+00  0.0000000000000000e+00  0.0000000000000000e+00  0.0000000000000000e+00  0.0000000000000000e+00  0.0000000000000000e+00  0.0000000000000000e+00  0.0000000000000000e+00  0.0000000000000000e+00  0.0000000000000000e+00  0.0000000000000000e+00  0.0000000000000000e+00  0.0000000000000000e+00  0.0000000000000000e+00  0.0000000000000000e+00  0.0000000000000000e+00  0.0000000000000000e+00  0.0000000000000000e+00  0.0000000000000000e+00  0.0000000000000000e+00  0.0000000000000000e+00  0.0000000000000000e+00  0.0000000000000000e+00  0.0000000000000000e+00  0.0000000000000000e+00  0.0000000000000000e+00  0.0000000000000000e+00  0.0000000000000000e+00  0.0000000000000000e+00  0.0000000000000000e+00  0.0000000000000000e+00  0.0000000000000000e+00  0.0000000000000000e+00  0.0000000000000000e+00  0.0000000000000000e+00  0.0000000000000000e+00  0.0000000000000000e+00  0.0000000000000000e+00  0.0000000000000000e+00  0.0000000000000000e+00  0.0000000000000000e+00  0.0000000000000000e+00  0.0000000000000000e+00  0.0000000000000000e+00  0.0000000000000000e+00  0.0000000000000000e+00  0.0000000000000000e+00  0.0000000000000000e+00  0.0000000000000000e+00  0.0000000000000000e+00  0.0000000000000000e+00  0.0000000000000000e+00  0.0000000000000000e+00  0.0000000000000000e+00  0.0000000000000000e+00  0.0000000000000000e+00  0.0000000000000000e+00  0.0000000000000000e+00  0.0000000000000000e+00  0.0000000000000000e+00  0.0000000000000000e+00  0.0000000000000000e+00  0.0000000000000000e+00  0.0000000000000000e+00  0.0000000000000000e+00  0.0000000000000000e+00  0.0000000000000000e+00  0.0000000000000000e+00  0.0000000000000000e+00  0.0000000000000000e+00  0.0000000000000000e+00  0.0000000000000000e+00  0.0000000000000000e+00  0.0000000000000000e+00  0.0000000000000000e+00  0.0000000000000000e+00  0.0000000000000000e+00  0.0000000000000000e+00  0.0000000000000000e+00  0.0000000000000000e+00  0.0000000000000000e+00  0.0000000000000000e+00  0.0000000000000000e+00  0.0000000000000000e+00  0.0000000000000000e+00  0.0000000000000000e+00  0.0000000000000000e+00  0.0000000000000000e+00  0.0000000000000000e+00  0.0000000000000000e+00  0.0000000000000000e+00  0.0000000000000000e+00  0.0000000000000000e+00  0.0000000000000000e+00  0.0000000000000000e+00  0.0000000000000000e+00  0.0000000000000000e+00  0.0000000000000000e+00  0.0000000000000000e+00  0.0000000000000000e+00  0.0000000000000000e+00  0.0000000000000000e+00  0.0000000000000000e+00  0.0000000000000000e+00  0.0000000000000000e+00  0.0000000000000000e+00  0.0000000000000000e+00  0.0000000000000000e+00  0.0000000000000000e+00  0.0000000000000000e+00  0.0000000000000000e+00  0.0000000000000000e+00  0.0000000000000000e+00  0.0000000000000000e+00  0.0000000000000000e+00  0.0000000000000000e+00  0.0000000000000000e+00  0.0000000000000000e+00  0.0000000000000000e+00  0.0000000000000000e+00  0.0000000000000000e+00  0.0000000000000000e+00  0.0000000000000000e+00  0.0000000000000000e+00  0.0000000000000000e+00  0.0000000000000000e+00  0.0000000000000000e+00  0.0000000000000000e+00  0.0000000000000000e+00  0.0000000000000000e+00  0.0000000000000000e+00  0.0000000000000000e+00  0.0000000000000000e+00  0.0000000000000000e+00  0.0000000000000000e+00  0.0000000000000000e+00  0.0000000000000000e+00  0.0000000000000000e+00  0.0000000000000000e+00  0.0000000000000000e+00  0.0000000000000000e+00  0.0000000000000000e+00  0.0000000000000000e+00  0.0000000000000000e+00  0.0000000000000000e+00  0.0000000000000000e+00  0.0000000000000000e+00  0.0000000000000000e+00  0.0000000000000000e+00  0.0000000000000000e+00  0.0000000000000000e+00  0.0000000000000000e+00  0.0000000000000000e+00  0.0000000000000000e+00  0.0000000000000000e+00  0.0000000000000000e+00  0.0000000000000000e+00  0.0000000000000000e+00  0.0000000000000000e+00  0.0000000000000000e+00  0.0000000000000000e+00  0.0000000000000000e+00  0.0000000000000000e+00  0.0000000000000000e+00  0.0000000000000000e+00  0.0000000000000000e+00  0.0000000000000000e+00  0.0000000000000000e+00  0.0000000000000000e+00  0.0000000000000000e+00  0.0000000000000000e+00  0.0000000000000000e+00  0.0000000000000000e+00  0.0000000000000000e+00  0.0000000000000000e+00  0.0000000000000000e+00  0.0000000000000000e+00  0.0000000000000000e+00  0.0000000000000000e+00  0.0000000000000000e+00  0.0000000000000000e+00  0.0000000000000000e+00  0.0000000000000000e+00  0.0000000000000000e+00  0.0000000000000000e+00  0.0000000000000000e+00  0.0000000000000000e+00  0.0000000000000000e+00  0.0000000000000000e+00  0.0000000000000000e+00  0.0000000000000000e+00  0.0000000000000000e+00  0.0000000000000000e+00  0.0000000000000000e+00  0.0000000000000000e+00  0.0000000000000000e+00  0.0000000000000000e+00  0.0000000000000000e+00  0.0000000000000000e+00  0.0000000000000000e+00  0.0000000000000000e+00  0.0000000000000000e+00  0.0000000000000000e+00  0.0000000000000000e+00  0.0000000000000000e+00  0.0000000000000000e+00  0.0000000000000000e+00  0.0000000000000000e+00  0.0000000000000000e+00  0.0000000000000000e+00  0.0000000000000000e+00  0.0000000000000000e+00  0.0000000000000000e+00  0.0000000000000000e+00  0.0000000000000000e+00  0.0000000000000000e+00  0.0000000000000000e+00  0.0000000000000000e+00  0.0000000000000000e+00  0.0000000000000000e+00  0.0000000000000000e+00  0.0000000000000000e+00  0.0000000000000000e+00  0.0000000000000000e+00  0.0000000000000000e+00  0.0000000000000000e+00  0.0000000000000000e+00  0.0000000000000000e+00  0.0000000000000000e+00  0.0000000000000000e+00  0.0000000000000000e+00  0.0000000000000000e+00  0.0000000000000000e+00  0.0000000000000000e+00  0.0000000000000000e+00  0.0000000000000000e+00  0.0000000000000000e+00  0.0000000000000000e+00  0.0000000000000000e+00  0.0000000000000000e+00  0.0000000000000000e+00  0.0000000000000000e+00  0.0000000000000000e+00  0.0000000000000000e+00  0.0000000000000000e+00  0.0000000000000000e+00  0.0000000000000000e+00  0.0000000000000000e+00  0.0000000000000000e+00  0.0000000000000000e+00  0.0000000000000000e+00  0.0000000000000000e+00  0.0000000000000000e+00  0.0000000000000000e+00  0.0000000000000000e+00  0.0000000000000000e+00  0.0000000000000000e+00  0.0000000000000000e+00  0.0000000000000000e+00  0.0000000000000000e+00  0.0000000000000000e+00  0.0000000000000000e+00  0.0000000000000000e+00  0.0000000000000000e+00  0.0000000000000000e+00  0.0000000000000000e+00  0.0000000000000000e+00  0.0000000000000000e+00  -4.6142421007099815e+79  4.5528902023854201e+74  -6.8283631559864957e+75  6.9634236891590087e+75  -3.9434629310255098e+75  6.5271295951717395e+74  -2.1017470245094721e+73  6.2531893470256239e+70  1.7256070077708429e+70  -1.2911217117024545e+70  -6.0715314743442495e+70  -3.0735669292160583e+79  1.1878673049164022e+70  -8.1863288747831427e+68  -1.2129004092315665e+79  3.8331847898165653e+79  -1.4370470540392676e+69  -6.2148193778827921e+68  9.1467825265427337e+67  -5.5164814508933810e+68  5.3281429997706986e+67  -4.3078391818394050e+68  -4.8170444029024331e+67  -5.2769709817962036e+76  -1.4680024472949420e+79  -4.9103209418612575e+78  -1.8062628267873148e+69  -4.8085622649619942e+66  -1.2797510408107612e+68  -2.5343620765041559e+76  -1.4244854107630677e+67  -1.0861273083608917e+79  -2.7404616211254681e+80  4.2697271833034934e+77  -2.3018023381732649e+68  5.3416610293481883e+65  1.8471123639330274e+65  3.3878053328518757e+66  -2.0557967394025296e+66  3.2571551546745338e+74  -3.5018101853067024e+75  6.1697667986753698e+71  -1.8388996648443886e+73  6.5709832244279618e+79  -1.1245465926788222e+65  9.8418594676441154e+65  -5.4849062202550026e+65  -5.9521217240266644e+65  1.6888418924811072e+73  1.0551746598617035e+72  -1.6507836166773759e+71  9.4621468153119946e+72  1.3255145324409383e+73  -2.1226638445869821e+76  6.6622285186206172e+66  1.5243377774523108e+79  3.9552986360545388e+65  7.6533917406841739e+64  1.8168199729018384e+76  -3.7803305584184419e+65  1.2916725312684717e+65  -3.4137629867432707e+70  4.3456745684399433e+65  -8.2036432943223367e+64  1.9763147606536528e+79  3.2081299946009769e+78  8.3472831429300276e+79  3.3140387618066104e+75  1.1813353286091017e+79  3.1548433679595334e+78  4.7345748505422096e+78  -5.4263602548645941e+73  2.7828332035303728e+71  -1.9773565171091109e+72  -4.9505322765678115e+71  1.5124581726666780e+76  -7.0421160031728219e+64  1.5737346542617269e+76  -1.8216945254001085e+78  7.2018792394611166e+71  -1.1011582968103496e+65  -1.9175218334995860e+76  -2.0176405054995339e+64  1.0009354891093122e+65  -1.0159308550575878e+64  -6.1339371957560288e+81  1.9351368881893517e+65  6.4085664816001517e+63  -7.5913331391905891e+64  -2.1381780919877692e+78  6.2295301849369432e+69  1.7964368581336943e+65  -9.7542306379501960e+70  8.0421833323199993e+63  2.7918474385619806e+70  3.5216111443006466e+81  8.8462327411602971e+62  -9.7600927369867836e+64  -3.6413230560597908e+69  5.4731096024145054e+68  5.4750794068756461e+71  3.7115874968200936e+70  1.1302079419905280e+65  2.8364644399920030e+76  -1.3840832971549204e+74  1.0133713074190454e+74  2.6259060720960504e+76  4.5017926197284657e+70  -1.4147527808991348e+70  6.1601035795181466e+62  4.9863247240915102e+75  -6.5136910019970501e+63  -3.0140142861349786e+63  -2.2846280322264538e+73  -4.8983348864448086e+72  1.2349154078176191e+68  -1.3636250498995754e+64  -7.7653492595838246e+63  8.6031401008702749e+62  8.7019393124279903e+79  2.4581267051886151e+77  1.7979728571947026e+67  9.5076518630589853e+80  -1.1476549375502885e+65  -7.9485512891385586e+68  -2.5106739170748905e+70  1.2587094348414497e+63  3.8790848169412930e+63  1.4053849878827833e+68  -5.3569342956630571e+67  -4.2341187410755552e+70  2.2220838520015214e+69  -1.3595237681503219e+73  -2.8119201798429135e+75  1.1171170391442312e+71  -4.4092498860430984e+69  5.6222023645051927e+64  7.3001898703260652e+82  -1.0441486605769132e+77  -4.4391016803911032e+78  1.8850530949907084e+79  -2.9283565105397859e+82  -6.4122594317865018e+67  7.6749015893289750e+77  -5.3080298912810157e+72  -5.5317316064082926e+67  -3.6976991218863991e+66  -4.4455694241570503e+78  -4.4486338024411250e+80  6.9932806608394829e+70  5.3349715740394431e+62  -1.0048546307879457e+72  -4.8514062177280891e+78  -1.6819562531983259e+67  2.7565076256447560e+67  -4.4104724788687361e+65  4.1935796245559731e+60  2.3140508881048045e+68  2.8734460205360052e+63  -2.8392664513966631e+62  2.0996843645745916e+62  7.8772430093176636e+66  -9.2665749299991537e+70  -2.9513568611002739e+63  -8.0702730989536733e+66  -7.8708075897849867e+72  -4.1246152285270588e+68  -2.5312516765448354e+65  1.0459408064440271e+63  -2.7136547964008813e+67  -1.5167508774935741e+74  -1.6315195306202806e+79  3.7124748071653094e+66  1.0984201531413619e+78  8.6236460402197731e+62  6.6839805305065262e+74  4.6475551269960546e+63  8.7380648657340878e+67  -5.0490705789701552e+63  1.2018819077709074e+75  -6.4856624988723456e+66  -1.0425174431670660e+76  -3.1189980672702431e+71  -3.4721588159400053e+81  -4.2350423371925845e+61  3.6178128257098446e+72  -1.9907120285814005e+71  -4.1311778445247790e+75  2.0771803982436614e+63  7.9464471106956398e+65  1.6312057382735247e+63  -5.4928241344651125e+79  -5.0727430753892016e+63  8.9277111449379077e+62  3.4771866205078323e+75  -6.1512710190153612e+78  -2.4143555604094912e+67  1.6098126472832008e+68  8.0847249078618401e+73  -1.0827620833002328e+70  4.4435441789936092e+72  -1.0516638578108675e+73  -8.8299576733236128e+73  7.2212233319574851e+69  1.0943119824843385e+71  7.8553292618327754e+67  -1.5542049161705845e+67  5.4689314987830213e+78  -2.1087071566250660e+64  -8.6519885846918562e+67  -1.3842138752699559e+68  -3.0588395622430977e+79  -2.2935146960358466e+78  -4.7922515660187411e+63  5.4750625457648150e+62  -1.7961186663418234e+68  -1.4058387015877397e+77  2.9449770717726181e+63  8.5365589385335041e+70  1.5604223231772027e+71  -2.2250091956354812e+65  -3.8479656687909419e+70  4.0778097460965773e+76  -1.1946264334908348e+72  4.4365756732217297e+69  -8.2785355850193033e+61  1.0346315514535624e+69  -1.0683408033080246e+63  2.3716509410595600e+70  6.2308321053261721e+62  6.2876776798098513e+63  -1.2522830868041064e+63  -5.5893781441812911e+61  -2.7745691461841054e+65  1.5720267497563885e+62  1.4666679234046541e+73  2.0092632055662643e+70  6.7727908774717914e+66  2.7733725363890741e+66  5.5050601871480990e+78  -1.1556083150295350e+79  -1.1146881852791230e+72  -1.4759388069819713e+72  2.5428210274723398e+62  -2.2784924188198189e+75  -1.9690780145675725e+64  8.8832656269385881e+61  4.0307833718772973e+61  -4.4323697132804686e+76  3.1419905919769159e+72  9.4735312322177793e+72  -9.2936211736964662e+72  -9.6659004560951833e+79  2.0061413518254471e+78  -5.4104404972632169e+64  1.2617288934848244e+78  6.2714561248576292e+68  5.3271302884773572e+74  1.3686952000793284e+63  1.6521533208273534e+62  2.6586023879562694e+63  1.8390614043537990e+70  1.6702327831478738e+65  6.0505428045101698e+73  2.5896626673860974e+76  -1.9142491660598082e+76  -1.2948328777648630e+66  -1.1707353578639100e+63  -9.0680180628059406e+62  6.6457032661410803e+72  2.2577547404257955e+61  8.7646688196437777e+78  -6.9675459361091541e+76  1.6461094153203977e+69  -1.8478431977754672e+67  4.5038626898810730e+68  6.5836331834508658e+78  1.0220249010846834e+78  9.8463804256424382e+76  1.1346266281117782e+76  8.5150361883470419e+76  -1.4681316367438642e+78  8.7398076685187222e+79  -2.8983407159401585e+71  2.5444194976140412e+70  -8.5490289596988284e+66  -3.2469105656177134e+81  5.0500933422742145e+63  -1.0836012586026673e+66  -2.4285353704903088e+77  -4.7636473760721515e+80  3.1775329195998485e+76  -2.6533666903524654e+72  -1.6932656895038628e+74  -3.3354455267048752e+81  -4.8065969931407564e+63  3.9554176035140063e+75  3.8141222567595043e+62  1.8865545697440772e+62  -4.2411531022167941e+62  2.4705884657805273e+78  -1.9324799834698436e+78  -4.4070761830893217e+79  -1.1947293084629145e+80  1.7128684553757862e+71  -6.1255171609419942e+70  -1.9746442997269428e+69  -2.7281822771766190e+72  -1.2442032593743364e+72  -3.0206462622981108e+71  -4.5619008751161036e+75  2.2068539259759019e+72  1.0059284134395818e+79  -7.6432145388195932e+67  1.8682485109369016e+79  7.5616149157192524e+77  2.0815913176399108e+72  -2.1044030354285675e+68  4.8280751676709392e+69  7.9186287497279402e+61  -6.0414795169108429e+67  -6.6280911799791791e+67  -1.5540095958264982e+63  1.0064878797116668e+78  -4.6298149074257530e+61  5.8140229769739359e+62  6.9258409206654357e+64  -8.4082181430976898e+77  1.2195770298021896e+76  -1.1287648595755970e+78  -1.5005413150483995e+60  -8.2985341557262787e+68  6.7382089103786729e+70  1.0082164339800152e+76  -1.7802546947490430e+76  -1.0278361576657116e+69  8.0644242641282074e+75  -5.2009408532426394e+77  -2.7444271648883548e+82  2.5423912065598172e+69  -2.1823296400302871e+66  -3.9018513231979011e+74  1.1153013952647979e+65  -6.7231405765022123e+64  8.6188644467111947e+69  -1.7401635176474958e+61  2.6163833849329850e+67  -7.3335490631391440e+67  -1.3923133738446855e+62  -9.5311653381294645e+68  -1.6397940997124599e+71  -1.8690124012156588e+63  -7.4321344219998193e+64  -3.7670032619789146e+61  -1.4257214990471455e+67  -1.1951869645929014e+66  9.0131846401456554e+71  -7.0720003076774745e+80  -1.0705078523677351e+63  6.7661648122406967e+78  -4.2914407926282196e+79  -1.5784386678841774e+66  2.4487383896757971e+63  -3.4653925203260559e+72  1.1684813188415070e+65  -5.1757671380073292e+80  1.9264762893218581e+65  3.1110424788888180e+68  -1.8933795833226528e+79  2.1492022827284759e+66  2.1805128036176439e+62  -1.2867597199396719e+63  -3.4386596918093978e+66  -1.7833492712406399e+77  2.4867484863081362e+76  -2.1811660891733360e+69  -1.6748243569294987e+64  1.2112687055762472e+80  -4.0180160138725565e+71  -7.0038930798482822e+62  4.2796228953704594e+74  1.0358419271246068e+62  1.7694809903877431e+65  1.5269670215609861e+75  8.2048445156048145e+62  -3.3778537350179192e+81  1.0108576891330837e+63  -1.5601980124503576e+66  -6.5296711506727590e+61  -4.0945696253803155e+75  -1.0835538738111825e+72  7.9005741013896454e+68  1.3987063265117432e+74  2.4781297498381638e+61  -3.1062286281852413e+66  -1.9995028060536858e+76  -3.5527229403919189e+63  3.7007538305033624e+73  3.9579070536892229e+68  2.8959158943290467e+61  -7.3825098326526752e+61  -4.3866619563725055e+74  -5.8242182682981139e+64  1.7229451900648513e+76  2.5967931795931306e+68  2.3103894761562960e+75  -1.2113789490963826e+73  -1.3534658710533547e+61  -3.4997996063010088e+65  -4.5735167674931594e+66  -4.0291686784104438e+65  2.9382689773271314e+65  -6.8579164824624620e+77  4.1261195667055624e+78  -1.6668199984787546e+82  -7.8761765788298053e+77  2.6614015932582163e+66  -3.2442415382567169e+80  1.8731182092497776e+77  -9.1395136645472334e+64  -6.1350416149511173e+61  -1.6171673076412565e+62  8.2512005281430957e+70  1.0919802174166573e+71  -1.3541779280891659e+68  2.2708615529499064e+77  5.8722518272102686e+69  2.9122256728819256e+62  -4.1704734656363985e+60  5.2428178948983258e+62  -1.9868523415214760e+71  3.7116734030859968e+65  -7.5955254682527181e+67  -4.6240515040697707e+64  3.4042349139471819e+64  -1.4050606114055379e+65  -4.3044058408753235e+71  -1.1426557699526000e+65  -2.1442940672836896e+75  2.2027099540418999e+73  -1.0957304485007987e+74  1.5986767476609984e+72  9.4992311057931668e+73  -9.0544171971798927e+75  7.6436621032346690e+64  -1.4511449335041665e+75  -2.3383037242348424e+67  1.1593438599685614e+81  -3.0811567895376799e+70  -7.0867847850258803e+75  -2.7757515128585198e+73  1.2822826640151337e+80  -1.0722013790718494e+66  1.7795746384468026e+62  -5.1842895445559161e+62  -9.4255586434045377e+79  -6.4142056793463287e+69  5.1391637102837006e+74  3.0676174734474046e+74  -4.3133603048027808e+64  3.1828569191213646e+72  1.0599984865312193e+62  5.2973631714560139e+80  5.9673679192146927e+80  1.4579604921494621e+76  -1.0183685195879779e+68  1.6364504252108278e+66  -9.7641187638206360e+65  -5.0814952409518123e+69  1.2585791829696208e+70  -3.0356671412507957e+73  -2.6007420711973112e+64  -1.9313594662334325e+76  1.4716075825726120e+73  -5.4386414438215243e+67  7.4633726963935877e+80  -1.3491533584869370e+68  1.6364360228622844e+74  9.4758311906523610e+69  7.3619984739428581e+71  1.4660158140249110e+70  -4.9117402411933503e+66  1.2862907604561867e+61  1.5993923100770122e+65  -4.0230293335634686e+61  -3.8346316307454005e+64  1.4530694873468728e+62  2.6316100203216940e+77  -5.7609876096001949e+66  8.8993617195338506e+71  3.7993395326523271e+67  -3.7800427942351130e+76  2.0822038873150887e+74  -3.7237186097390613e+79  -1.2944167561722792e+63  -4.9315045023443764e+77  -1.3854485404770186e+62  -3.6268520234926881e+61  9.4699873434275510e+62  6.9451680514519136e+72  -1.0495066964327099e+64  -5.2400902169485418e+63  1.7668935575506667e+74  1.1589692188479221e+74  -1.9