<?xml version="1.0"?>
<VTKFile type="UnstructuredGrid"  version="0.1"  >
<UnstructuredGrid>
<Piece  NumberOfPoints="20054" NumberOfCells="39478">
<Points>
<DataArray  type="Float64"  NumberOfComponents="3"  format="ascii">1 0 0  0.9997998037428526 0.02000880895389431 0  0.9991992951284931 0.04000960653046352 0  0.9981987145960756 0.05999438456007805 0  0.9967984627705549 0.07995514128721501 0  0.9949991003022806 0.09988388457430118 0  0.9928013476425149 0.1197726351017051 0  0.9902060847549715 0.139613429562597 0  0.987214350763483 0.1593983238513969 0  0.9838273435359444 0.1791193962445356 0  0.9800464192046954 0.198768750572253 0  0.9758730916235354 0.2183385193801655 0  0.9713090317615876 0.237820867079336 0  0.9663560670342555 0.2572079930835849 0  0.9610161805715396 0.2764921349327862 0  0.9552915104240066 0.2956655714008991 0  0.9491843487067304 0.3147206255874884 0  0.9426971406815462 0.3336496679914983 0  0.9358324837779861 0.3524451195660473 0  0.9285931265532873 0.3710994547530225 0  0.9209819675918909 0.3896052044962556 0  0.9130020543448703 0.4079549592320781 0  0.9046565819097542 0.4261413718560547 0  0.8959488917512338 0.4441571606647087 0  0.8868824703632656 0.4619951122710622 0  0.8774609478731046 0.4796480844928215 0  0.8676880965878291 0.4971090092120542 0  0.8575678294839372 0.5143708952052096 0  0.8471041986406199 0.5314268309423539 0  0.8363013936173391 0.5482699873544935 0  0.8251637397763597 0.5648936205678837 0  0.8136956965509062 0.5812910746042258 0  0.8019018556596399 0.5974557840456699 0  0.7897869392681683 0.6133812766635599 0  0.777355798098326 0.6290611760098652 0  0.7646134094859813 0.6444892039702628 0  0.7515648753881492 0.6596591832778468 0  0.7382154203402046 0.6745650399864606 0  0.7245703893640189 0.6892008059026586 0  0.7106352458278521 0.7035606209753273 0  0.6964155692588616 0.7176387356420051 0  0.6819170531091018 0.7314295131309636 0  0.6671455024759069 0.7449274317181303 0  0.6521068317775753 0.7581270869379442 0  0.6368070623852795 0.7710231937472638 0  0.6212523202121545 0.7836105886414595 0  0.6054488332605282 0.795884231721841 0  0.5894029291282759 0.8078392087135958 0  0.5731210324752972 0.8194707329334278 0  0.5566096624511305 0.8307741472061095 0  0.5398754300847343 0.8417449257291802 0  0.5229250356374803 0.8523786758850435 0  0.5057652659204196 0.8626711399997378 0  0.4884029915768944 0.8726181970476778 0  0.4708451643315825 0.8822158643016828 0  0.45309881420708 0.8914602989276292 0  0.4351710467091336 0.9003477995230937 0  0.4170690399816468 0.9088748075993677 0  0.398800041932607 0.9170379090062476 0  0.3803713673320772 0.9248338352990368 0  0.3617903948834157 0.9322594650472057 0  0.3430645642688987 0.9393118250841893 0  0.3242013731709288 0.9459880916978206 0  0.3052083742700172 0.952285591760924 0  0.2860931722207478 0.9582018038016155 0  0.2668634206069304 0.963734359012881 0  0.2475268188771628 0.9688810422010291 0  0.2280911092620296 0.9736397926726377 0  0.2085640736741707 0.9780087050596407 0  0.1889535305924618 0.9819860300822225 0  0.1692673319315541 0.9855701752492174 0  0.1495133598980264 0.9887597054957302 0  0.1296995238344084 0.9915533437577263 0  0.1098337570523395 0.9939499714833577 0  0.08992401365612977 0.9959486290808237 0  0.06997826535799723 0.9975485163025836 0  0.05000449828625179 0.9987489925657699 0  0.03001070978771124 0.9995495772086734 0  0.01000490522562346 0.9999499496831961 0  -0.01000490522562333 0.9999499496831961 0  -0.03001070978771133 0.9995495772086734 0  -0.05000449828625144 0.9987489925657699 0  -0.06997826535799688 0.9975485163025836 0  -0.08992401365612987 0.9959486290808237 0  -0.1098337570523394 0.9939499714833577 0  -0.1296995238344082 0.9915533437577263 0  -0.1495133598980262 0.9887597054957303 0  -0.1692673319315537 0.9855701752492174 0  -0.1889535305924614 0.9819860300822226 0  -0.2085640736741705 0.9780087050596407 0  -0.2280911092620295 0.9736397926726377 0  -0.2475268188771627 0.9688810422010291 0  -0.2668634206069302 0.9637343590128811 0  -0.2860931722207475 0.9582018038016156 0  -0.3052083742700173 0.9522855917609239 0  -0.3242013731709289 0.9459880916978205 0  -0.3430645642688986 0.9393118250841894 0  -0.3617903948834154 0.9322594650472058 0  -0.380371367332077 0.924833835299037 0  -0.3988000419326071 0.9170379090062476 0  -0.4170690399816465 0.9088748075993678 0  -0.4351710467091335 0.9003477995230939 0  -0.4530988142070799 0.8914602989276292 0  -0.4708451643315824 0.8822158643016829 0  -0.4884029915768945 0.8726181970476778 0  -0.5057652659204197 0.8626711399997378 0  -0.5229250356374801 0.8523786758850437 0  -0.5398754300847342 0.8417449257291804 0  -0.5566096624511303 0.8307741472061098 0  -0.5731210324752971 0.8194707329334279 0  -0.589402929128276 0.8078392087135957 0  -0.6054488332605281 0.7958842317218411 0  -0.6212523202121542 0.7836105886414597 0  -0.6368070623852793 0.7710231937472639 0  -0.652106831777575 0.7581270869379444 0  -0.6671455024759069 0.7449274317181304 0  -0.6819170531091018 0.7314295131309636 0  -0.6964155692588616 0.7176387356420052 0  -0.7106352458278521 0.7035606209753273 0  -0.7245703893640187 0.6892008059026588 0  -0.7382154203402043 0.6745650399864608 0  -0.751564875388149 0.6596591832778469 0  -0.7646134094859813 0.6444892039702628 0  -0.7773557980983258 0.6290611760098654 0  -0.7897869392681683 0.6133812766635599 0  -0.8019018556596398 0.59745578404567 0  -0.8136956965509062 0.5812910746042258 0  -0.8251637397763595 0.5648936205678839 0  -0.836301393617339 0.5482699873544935 0  -0.8471041986406197 0.5314268309423542 0  -0.8575678294839372 0.5143708952052097 0  -0.8676880965878292 0.497109009212054 0  -0.8774609478731045 0.4796480844928216 0  -0.8868824703632656 0.4619951122710621 0  -0.8959488917512338 0.4441571606647088 0  -0.904656581909754 0.426141371856055 0  -0.9130020543448703 0.4079549592320783 0  -0.920981967591891 0.3896052044962555 0  -0.9285931265532872 0.3710994547530226 0  -0.9358324837779861 0.3524451195660473 0  -0.9426971406815462 0.3336496679914984 0  -0.9491843487067303 0.3147206255874888 0  -0.9552915104240065 0.2956655714008993 0  -0.9610161805715396 0.2764921349327862 0  -0.9663560670342555 0.2572079930835851 0  -0.9713090317615876 0.2378208670793361 0  -0.9758730916235353 0.2183385193801658 0  -0.9800464192046954 0.198768750572253 0  -0.9838273435359444 0.1791193962445354 0  -0.987214350763483 0.159398323851397 0  -0.9902060847549714 0.1396134295625972 0  -0.9928013476425149 0.1197726351017052 0  -0.9949991003022804 0.09988388457430147 0  -0.9967984627705549 0.07995514128721509 0  -0.9981987145960756 0.05999438456007793 0  -0.9991992951284931 0.04000960653046362 0  -0.9997998037428526 0.02000880895389464 0  -1 1.224646799147353e-16 0  -0.9997998037428526 -0.0200088089538944 0  -0.9991992951284931 -0.04000960653046338 0  -0.9981987145960756 -0.05999438456007812 0  -0.9967984627705549 -0.07995514128721484 0  -0.9949991003022806 -0.09988388457430078 0  -0.9928013476425149 -0.1197726351017049 0  -0.9902060847549715 -0.1396134295625965 0  -0.9872143507634831 -0.1593983238513963 0  -0.9838273435359444 -0.1791193962445356 0  -0.9800464192046953 -0.1987687505722532 0  -0.9758730916235354 -0.2183385193801655 0  -0.9713090317615876 -0.2378208670793363 0  -0.9663560670342556 -0.2572079930835848 0  -0.9610161805715396 -0.276492134932786 0  -0.9552915104240066 -0.2956655714008991 0  -0.9491843487067305 -0.3147206255874881 0  -0.9426971406815464 -0.3336496679914978 0  -0.9358324837779862 -0.3524451195660471 0  -0.9285931265532875 -0.371099454753022 0  -0.9209819675918909 -0.3896052044962557 0  -0.9130020543448704 -0.407954959232078 0  -0.9046565819097541 -0.4261413718560548 0  -0.8959488917512338 -0.4441571606647086 0  -0.8868824703632655 -0.4619951122710623 0  -0.8774609478731046 -0.4796480844928214 0  -0.8676880965878293 -0.4971090092120538 0  -0.8575678294839373 -0.5143708952052095 0  -0.84710419864062 -0.5314268309423537 0  -0.8363013936173395 -0.5482699873544929 0  -0.8251637397763596 -0.5648936205678838 0  -0.8136956965509061 -0.5812910746042259 0  -0.8019018556596399 -0.5974557840456699 0  -0.7897869392681682 -0.61338127666356 0  -0.777355798098326 -0.6290611760098652 0  -0.7646134094859816 -0.6444892039702625 0  -0.7515648753881492 -0.6596591832778468 0  -0.7382154203402048 -0.6745650399864603 0  -0.7245703893640192 -0.6892008059026583 0  -0.7106352458278522 -0.7035606209753272 0  -0.6964155692588621 -0.7176387356420046 0  -0.6819170531091017 -0.7314295131309637 0  -0.667145502475907 -0.7449274317181303 0  -0.6521068317775756 -0.758127086937944 0  -0.6368070623852792 -0.7710231937472641 0  -0.6212523202121544 -0.7836105886414596 0  -0.6054488332605283 -0.795884231721841 0  -0.5894029291282762 -0.8078392087135956 0  -0.5731210324752977 -0.8194707329334274 0  -0.5566096624511304 -0.8307741472061095 0  -0.5398754300847344 -0.8417449257291802 0  -0.5229250356374798 -0.8523786758850437 0  -0.5057652659204195 -0.8626711399997379 0  -0.4884029915768943 -0.872618197047678 0  -0.4708451643315825 -0.8822158643016828 0  -0.4530988142070805 -0.8914602989276289 0  -0.4351710467091333 -0.900347799523094 0  -0.4170690399816467 -0.9088748075993677 0  -0.3988000419326073 -0.9170379090062475 0  -0.3803713673320777 -0.9248338352990366 0  -0.3617903948834162 -0.9322594650472055 0  -0.3430645642688988 -0.9393118250841893 0  -0.3242013731709283 -0.9459880916978207 0  -0.3052083742700169 -0.9522855917609241 0  -0.2860931722207477 -0.9582018038016155 0  -0.2668634206069305 -0.963734359012881 0  -0.2475268188771631 -0.968881042201029 0  -0.2280911092620301 -0.9736397926726376 0  -0.2085640736741706 -0.9780087050596407 0  -0.1889535305924619 -0.9819860300822225 0  -0.1692673319315544 -0.9855701752492173 0  -0.1495133598980269 -0.9887597054957302 0  -0.1296995238344092 -0.9915533437577262 0  -0.1098337570523396 -0.9939499714833577 0  -0.08992401365612945 -0.9959486290808237 0  -0.06997826535799691 -0.9975485163025836 0  -0.05000449828625168 -0.9987489925657699 0  -0.0300107
[...]
<PointData  Scalars="Displacement"> 
<DataArray  type="Float64"  Name="Displacement"  format="ascii">0.0000000000000000e+00  0.0000000000000000e+00  0.0000000000000000e+00  0.0000000000000000e+00  0.0000000000000000e+00  0.0000000000000000e+00  0.0000000000000000e+00  0.0000000000000000e+00  0.0000000000000000e+00  0.0000000000000000e+00  0.0000000000000000e+00  0.0000000000000000e+00  0.0000000000000000e+00  0.0000000000000000e+00  0.0000000000000000e+00  0.0000000000000000e+00  0.0000000000000000e+00  0.0000000000000000e+00  0.0000000000000000e+00  0.0000000000000000e+00  0.0000000000000000e+00  0.0000000000000000e+00  0.0000000000000000e+00  0.0000000000000000e+00  0.0000000000000000e+00  0.0000000000000000e+00  0.0000000000000000e+00  0.0000000000000000e+00  0.0000000000000000e+00  0.0000000000000000e+00  0.0000000000000000e+00  0.0000000000000000e+00  0.0000000000000000e+00  0.0000000000000000e+00  0.0000000000000000e+00  0.0000000000000000e+00  0.0000000000000000e+00  0.0000000000000000e+00  0.0000000000000000e+00  0.0000000000000000e+00  0.0000000000000000e+00  0.0000000000000000e+00  0.0000000000000000e+00  0.0000000000000000e+00  0.0000000000000000e+00  0.0000000000000000e+00  0.0000000000000000e+00  0.0000000000000000e+00  0.0000000000000000e+00  0.0000000000000000e+00  0.0000000000000000e+00  0.0000000000000000e+00  0.0000000000000000e+00  0.0000000000000000e+00  0.0000000000000000e+00  0.0000000000000000e+00  0.0000000000000000e+00  0.0000000000000000e+00  0.0000000000000000e+00  0.0000000000000000e+00  0.0000000000000000e+00  0.0000000000000000e+00  0.0000000000000000e+00  0.0000000000000000e+00  0.0000000000000000e+00  0.0000000000000000e+00  0.0000000000000000e+00  0.0000000000000000e+00  0.0000000000000000e+00  0.0000000000000000e+00  0.0000000000000000e+00  0.0000000000000000e+00  0.0000000000000000e+00  0.0000000000000000e+00  0.0000000000000000e+00  0.0000000000000000e+00  0.0000000000000000e+00  0.0000000000000000e+00  0.0000000000000000e+00  0.0000000000000000e+00  0.0000000000000000e+00  0.0000000000000000e+00  0.0000000000000000e+00  0.0000000000000000e+00  0.0000000000000000e+00  0.0000000000000000e+00  0.0000000000000000e+00  0.0000000000000000e+00  0.0000000000000000e+00  0.0000000000000000e+00  0.0000000000000000e+00  0.0000000000000000e+00  0.0000000000000000e+00  0.0000000000000000e+00  0.0000000000000000e+00  0.0000000000000000e+00  0.0000000000000000e+00  0.0000000000000000e+00  0.0000000000000000e+00  0.0000000000000000e+00  0.0000000000000000e+00  0.0000000000000000e+00  0.0000000000000000e+00  0.0000000000000000e+00  0.0000000000000000e+00  0.0000000000000000e+00  0.0000000000000000e+00  0.0000000000000000e+00  0.0000000000000000e+00  0.0000000000000000e+00  0.0000000000000000e+00  0.0000000000000000e+00  0.0000000000000000e+00  0.0000000000000000e+00  0.0000000000000000e+00  0.0000000000000000e+00  0.0000000000000000e+00  0.0000000000000000e+00  0.0000000000000000e+00  0.0000000000000000e+00  0.0000000000000000e+00  0.0000000000000000e+00  0.0000000000000000e+00  0.0000000000000000e+00  0.0000000000000000e+00  0.0000000000000000e+00  0.0000000000000000e+00  0.0000000000000000e+00  0.0000000000000000e+00  0.0000000000000000e+00  0.0000000000000000e+00  0.0000000000000000e+00  0.0000000000000000e+00  0.0000000000000000e+00  0.0000000000000000e+00  0.0000000000000000e+00  0.0000000000000000e+00  0.0000000000000000e+00  0.0000000000000000e+00  0.0000000000000000e+00  0.0000000000000000e+00  0.0000000000000000e+00  0.0000000000000000e+00  0.0000000000000000e+00  0.0000000000000000e+00  0.0000000000000000e+00  0.0000000000000000e+00  0.0000000000000000e+00  0.0000000000000000e+00  0.0000000000000000e+00  0.0000000000000000e+00  0.0000000000000000e+00  0.0000000000000000e+00  0.0000000000000000e+00  0.0000000000000000e+00  0.0000000000000000e+00  0.0000000000000000e+00  0.0000000000000000e+00  0.0000000000000000e+00  0.0000000000000000e+00  0.0000000000000000e+00  0.0000000000000000e+00  0.0000000000000000e+00  0.0000000000000000e+00  0.0000000000000000e+00  0.0000000000000000e+00  0.0000000000000000e+00  0.0000000000000000e+00  0.0000000000000000e+00  0.0000000000000000e+00  0.0000000000000000e+00  0.0000000000000000e+00  0.0000000000000000e+00  0.0000000000000000e+00  0.0000000000000000e+00  0.0000000000000000e+00  0.0000000000000000e+00  0.0000000000000000e+00  0.0000000000000000e+00  0.0000000000000000e+00  0.0000000000000000e+00  0.0000000000000000e+00  0.0000000000000000e+00  0.0000000000000000e+00  0.0000000000000000e+00  0.0000000000000000e+00  0.0000000000000000e+00  0.0000000000000000e+00  0.0000000000000000e+00  0.0000000000000000e+00  0.0000000000000000e+00  0.0000000000000000e+00  0.0000000000000000e+00  0.0000000000000000e+00  0.0000000000000000e+00  0.0000000000000000e+00  0.0000000000000000e+00  0.0000000000000000e+00  0.0000000000000000e+00  0.0000000000000000e+00  0.0000000000000000e+00  0.0000000000000000e+00  0.0000000000000000e+00  0.0000000000000000e+00  0.0000000000000000e+00  0.0000000000000000e+00  0.0000000000000000e+00  0.0000000000000000e+00  0.0000000000000000e+00  0.0000000000000000e+00  0.0000000000000000e+00  0.0000000000000000e+00  0.0000000000000000e+00  0.0000000000000000e+00  0.0000000000000000e+00  0.0000000000000000e+00  0.0000000000000000e+00  0.0000000000000000e+00  0.0000000000000000e+00  0.0000000000000000e+00  0.0000000000000000e+00  0.0000000000000000e+00  0.0000000000000000e+00  0.0000000000000000e+00  0.0000000000000000e+00  0.0000000000000000e+00  0.0000000000000000e+00  0.0000000000000000e+00  0.0000000000000000e+00  0.0000000000000000e+00  0.0000000000000000e+00  0.0000000000000000e+00  0.0000000000000000e+00  0.0000000000000000e+00  0.0000000000000000e+00  0.0000000000000000e+00  0.0000000000000000e+00  0.0000000000000000e+00  0.0000000000000000e+00  0.0000000000000000e+00  0.0000000000000000e+00  0.0000000000000000e+00  0.0000000000000000e+00  0.0000000000000000e+00  0.0000000000000000e+00  0.0000000000000000e+00  0.0000000000000000e+00  0.0000000000000000e+00  0.0000000000000000e+00  0.0000000000000000e+00  0.0000000000000000e+00  0.0000000000000000e+00  0.0000000000000000e+00  0.0000000000000000e+00  0.0000000000000000e+00  0.0000000000000000e+00  0.0000000000000000e+00  0.0000000000000000e+00  0.0000000000000000e+00  0.0000000000000000e+00  0.0000000000000000e+00  0.0000000000000000e+00  0.0000000000000000e+00  0.0000000000000000e+00  0.0000000000000000e+00  0.0000000000000000e+00  0.0000000000000000e+00  0.0000000000000000e+00  0.0000000000000000e+00  0.0000000000000000e+00  0.0000000000000000e+00  0.0000000000000000e+00  0.0000000000000000e+00  0.0000000000000000e+00  0.0000000000000000e+00  0.0000000000000000e+00  0.0000000000000000e+00  0.0000000000000000e+00  0.0000000000000000e+00  0.0000000000000000e+00  0.0000000000000000e+00  0.0000000000000000e+00  0.0000000000000000e+00  0.0000000000000000e+00  0.0000000000000000e+00  0.0000000000000000e+00  0.0000000000000000e+00  0.0000000000000000e+00  0.0000000000000000e+00  0.0000000000000000e+00  0.0000000000000000e+00  0.0000000000000000e+00  0.0000000000000000e+00  0.0000000000000000e+00  0.0000000000000000e+00  0.0000000000000000e+00  0.0000000000000000e+00  0.0000000000000000e+00  0.0000000000000000e+00  0.0000000000000000e+00  0.0000000000000000e+00  0.0000000000000000e+00  0.0000000000000000e+00  0.0000000000000000e+00  0.0000000000000000e+00  0.0000000000000000e+00  0.0000000000000000e+00  0.0000000000000000e+00  0.0000000000000000e+00  0.0000000000000000e+00  0.0000000000000000e+00  0.0000000000000000e+00  0.0000000000000000e+00  0.0000000000000000e+00  -5.0571884831365155e-02  1.5237195856438410e-01  1.5208107853189240e-01  1.5168115362516896e-01  1.5198449998119598e-01  1.5199369874850688e-01  1.6495701500539575e-01  1.0733369201268038e-01  9.0910125012481913e-02  5.7918864512685478e-02  5.8046365010699388e-02  -1.3609932131473657e-01  1.7770136579918046e-02  1.7431352219788261e-02  -1.4335620697552884e-01  -1.4561426997797702e-01  1.0052576099040395e-03  1.4709463517079474e-03  7.9861354168486980e-04  4.2427735083867086e-04  2.7877534998913575e-04  1.3901356060000178e-04  1.9400419737311195e-04  1.2570635298949044e-02  1.2553286853567902e-02  -1.2607389454157308e-01  2.6526682325410792e-03  -4.0822043043434050e-06  -5.4946481813751010e-06  1.2983339169796490e-01  -1.1157969375660131e-05  -1.4434548520102020e-01  -8.5050286676934900e-02  1.4394205023198423e-01  -8.1897786066897155e-07  1.5521004317787736e-07  9.9136631046689046e-08  5.6350444265144170e-08  3.0544070389249810e-08  1.6941345213011641e-01  1.6842339726764591e-01  1.6638405901054226e-01  1.6528523275088475e-01  -7.4106574654690394e-02  2.7476662695200371e-09  9.4195817428021266e-09  -1.2800442986242750e-09  -2.2005101364797258e-09  1.5152042208123351e-01  1.5619273795430794e-01  4.0397535643782220e-02  1.6940671719027198e-01  1.6215505486882889e-01  1.1953315244519100e-01  -8.6165214554714643e-10  -6.9884879859122090e-02  -1.1548172723705432e-08  -2.4776036184461001e-10  -1.1071480963335807e-01  -7.5347373368656848e-10  -5.0205287712019887e-10  6.2905649603021307e-02  -1.2022164811064026e-10  -1.1071072998725127e-09  -1.1094124638701527e-01  -1.2349837869005949e-01  -2.4000448791329093e-03  1.1992010308630296e-01  -1.0936726808063001e-02  -6.3720373619187420e-02  -1.1304043554666351e-01  1.5347833843382214e-01  1.1480059277152078e-01  1.2690770785648559e-01  1.2787685626232093e-01  -6.5706412855593921e-02  -1.2273180099171501e-10  4.6374927108191251e-02  -6.9126338408119256e-02  7.3507012947144748e-02  3.5469569562934552e-11  2.1576617750189490e-02  -2.5451245271025406e-12  -1.8147397903150127e-11  1.4525892513371246e-11  -6.1497097196621699e-02  2.1189826020340358e-11  7.0122260114654624e-11  1.4893664713708815e-11  -1.5972582249982679e-02  4.4503534179245234e-02  -2.9703478346114883e-13  1.1719369890142044e-01  1.1793426316793986e-12  4.5523318941240315e-02  -7.2009850546490645e-02  -2.0746587206661250e-11  7.1562908708167026e-12  3.5020868423098588e-02  1.4371011902616020e-02  8.2530570574400969e-02  3.5063610492134321e-02  9.0991611454635121e-12  1.0071598743306445e-01  1.6926216267292202e-01  1.6925625455187571e-01  7.8467996112275354e-02  1.4544804181053216e-02  2.6908585172479894e-02  4.8193361086563747e-14  6.5596658289079124e-02  -1.7408665779161058e-12  -3.6065440839563983e-12  1.4850220868712227e-01  1.3990810380169541e-01  1.0909551807977654e-02  -2.4525655421219637e-13  1.1970308339518842e-14  3.5637374116907419e-12  -6.2927325126401618e-02  9.3660740004445478e-02  -2.4873878916525227e-05  -1.4518970649674756e-01  -5.0354073478309429e-10  2.5285616288069756e-03  5.6820281640010246e-02  8.5278313359415925e-12  -4.9493442711818470e-15  1.0029632778037684e-03  1.5094643355403590e-03  6.0112881941666391e-02  2.9247771794631526e-03  1.1433431244897355e-01  1.2341994099801877e-01  1.5182261093455451e-01  1.4700365805939497e-02  1.6838065083049378e-13  -1.4578440323086850e-01  -2.1511927788670400e-02  -1.2321819624047756e-01  -5.6170762397404463e-02  -1.4578642359604838e-01  -4.8304667385909986e-06  6.4614995292201396e-02  1.4725418419898767e-01  -1.2027460392922023e-05  -2.0928669011301531e-05  -1.3953890683511339e-01  -7.3688604864450724e-02  9.5409290364367905e-02  -5.5322296992188259e-14  1.4390916114184382e-01  -1.5887296891986015e-02  4.9856568801627304e-05  2.5258287930111558e-05  -2.5656198809561496e-09  -1.2074121850957255e-15  -2.3480745948675887e-06  3.3536204882159690e-14  -7.5920963097902009e-14  6.8260754161091987e-13  -1.5633024951902819e-05  7.3676192680762656e-02  -1.2654042597949691e-13  1.2209504176978235e-07  1.5920764714222460e-01  -1.6671683302100245e-05  3.6478305542078767e-13  1.9850267954894275e-14  -8.2618444531643630e-06  1.5720194973924995e-01  -5.5309950619971987e-02  4.0648829947117327e-06  1.0222846080393980e-03  -9.0822461640990825e-15  1.1315731187608569e-01  -3.7591267980602017e-14  3.0161520895125932e-04  -4.1987967633452239e-14  1.3971771586860615e-01  -1.9990194555660160e-06  1.6713861973022123e-01  1.5199266753349697e-01  -1.1405313783183171e-01  -1.0946233233973059e-13  1.6940949526716625e-01  9.1515902576493155e-02  1.4245427642151087e-01  -2.8778211793706386e-15  2.3226715355229222e-08  1.6703545092314870e-14  -7.4377851950775231e-02  3.1901723664495795e-15  -8.3187406277677849e-14  1.6786989220928050e-01  -9.5804715202303894e-02  -6.9543258925541425e-06  -5.1217864795765872e-07  1.5998974446974173e-01  7.2618094781201722e-02  1.4133775313500491e-01  1.5893752903749875e-01  1.4902301088526812e-01  8.5907002436835925e-02  1.4077507884190343e-01  -8.9551986878493126e-07  1.9310069415046352e-07  -1.3671639792768997e-01  -1.4254472978877904e-11  -5.5374913791774933e-07  4.1422349922509732e-04  -7.7982936812804646e-02  -5.4915412362192204e-02  -1.4472083215906990e-14  4.3716984101772872e-14  -6.7778979300636993e-06  1.3296880515414208e-01  -3.1829292629524731e-14  9.4114388244219874e-02  6.3183788198137109e-02  6.1835233767052448e-10  3.9213929745261653e-02  4.7643774086547790e-02  1.0920472216413456e-01  6.5633767057008879e-02  1.8260988816698366e-14  1.4556141004744108e-02  3.6619756658712689e-15  6.4118686557587443e-02  6.4670965184058213e-14  -4.7878430240153570e-13  -2.3230216715289142e-14  2.6598226561277988e-15  9.1456674788569872e-10  4.5029298574551821e-15  1.1203077917786755e-01  1.4421505086274242e-01  1.6011375556360777e-07  1.1874878538480018e-08  -1.4353899472815715e-01  -1.2609809222609278e-01  8.8872425563491175e-02  1.2135633326727108e-01  2.0622378431380009e-13  1.5546101872564844e-01  1.5794828954824138e-14  2.1415008596050738e-15  1.9799062380895657e-14  -2.7447677502880519e-02  1.3619012568949659e-01  1.6807330894103217e-01  1.6929118743449079e-01  -1.4473178706029113e-01  -5.4676841307877977e-02  2.5054860688928497e-08  1.8320459225277509e-02  -2.7054524087350438e-05  1.6937418967722517e-01  -4.7387704119967657e-13  1.1967020769799333e-15  -1.1317527425850446e-12  1.6857877837790559e-02  1.1188136385107871e-07  1.5420629084791729e-01  1.2997762354602990e-01  3.2589959159828430e-02  1.6726338924889856e-09  -2.7174857239214663e-12  -2.4630952056631395e-13  1.5424690235502736e-01  4.4978948837237336e-15  -2.0114121330337204e-02  1.2267092503448024e-01  1.7854972485996799e-04  -4.3508104478004824e-07  1.9715760569440265e-02  -7.8719180973650910e-02  -1.0735641548907197e-01  -8.9084897465471474e-03  -5.5737801872101624e-02  -1.2176503841654936e-01  -1.2209725088569619e-01  -1.0158501702532725e-01  6.8434854803386208e-02  2.0719624986330964e-02  6.3464069025229955e-04  -1.2397965880955569e-01  2.5889174152207349e-14  2.6645026540160659e-08  4.7317381985123752e-02  -1.0692426590839091e-01  1.2009591970223706e-01  8.6093399595174327e-02  1.6478346835085003e-01  -8.3887742927396383e-02  3.9921223304507875e-16  1.6915507241005256e-01  -2.1882768249878673e-16  3.2089101039547190e-15  3.3636580225534966e-14  -7.1310308389617771e-02  -5.3579051631245010e-02  -1.0588406427147359e-01  -1.3734908768313439e-01  3.8200419963195224e-02  1.1128289183274374e-01  3.6075371664733122e-03  1.4756283085562741e-01  6.6967580941568933e-02  9.0418720086929139e-02  1.6955592895045524e-01  7.2478834564477942e-02  -1.2248726978219579e-01  1.2719668614702851e-04  -1.0181859804605749e-01  -1.2734852884073489e-01  1.5717336246751251e-01  3.7466758111212037e-03  2.6312802579883905e-02  -4.3090106935725878e-17  -1.9284513998130917e-06  -1.3603965898524483e-05  4.1472581617442083e-15  -5.8158742023373837e-02  -4.5226612938411544e-16  5.3639025536051336e-16  3.7875548193266276e-09  5.0367118536634600e-02  -2.1096722856731070e-02  -1.4300997151055331e-01  1.0638845726699670e-16  3.9657841296415102e-03  7.2770029377704687e-02  1.6357542763711880e-01  -7.4383036349006892e-02  5.9984960628400473e-04  1.5583113267582210e-01  -5.9478439482551201e-02  -1.2517291227319227e-01  3.9298605595700573e-02  -1.7912368666356141e-07  1.5227857627944288e-01  5.4194134049668883e-10  -7.7396534730756532e-11  3.9909847825210933e-02  2.1738068853531813e-16  1.8613184622092812e-09  -9.4563598029916192e-06  -2.6452242643697257e-16  3.4772235210496417e-02  4.1254766903478110e-02  3.3181468665881800e-16  6.6375133420038803e-10  -5.5730365941210829e-15  9.9133169249047300e-09  -2.0084482619438688e-09  1.6773037672649707e-01  -5.2607204937408114e-02  -4.2946590950474019e-09  -7.0423636024221345e-02  -8.1136833499173458e-02  -6.4406207589416949e-05  -2.6073453985961208e-18  1.3987045112949498e-01  -5.0728358256050373e-10  -9.9482330111655345e-02  -1.5497970710733807e-10  1.3982595877863237e-02  -5.7653195009385441e-02  9.5540427944000016e-08  2.4321650034377915e-16  -1.8132553567832529e-14  -6.1056085683440106e-08  -2.1785056471504638e-02  9.7513632304849968e-02  1.2664949911473588e-02  -4.1256294268702758e-14  -6.4971780626249101e-02  1.3508385147628074e-01  -6.6932100017295343e-16  1.6810017080705159e-01  1.3526598501183448e-16  2.0261341400128119e-08  1.5533754103321532e-01  -4.5771428812677347e-16  -1.2057314137561201e-01  3.9018563652654945e-18  -2.1106227768382603e-08  6.1717557941186168e-17  5.5678889332603607e-02  1.5521404223436214e-01  3.8759197866955565e-02  1.5764349018322921e-01  -1.2668957499507432e-15  4.1565356238871857e-08  5.4088448116232951e-02  -4.3697111042133726e-14  1.2435074773861948e-01  2.2771562886695514e-04  -1.5404789270598511e-16  -1.3460069647644450e-16  1.6923593401553919e-01  -5.5109104797351133e-11  1.2016137992583222e-01  6.6269287944281186e-04  1.6962768880113777e-01  1.5224265082930596e-01  6.2105778640466092e-17  3.4435886676015499e-09  2.9978444461655611e-07  -2.4621264867916807e-10  -1.6333521822900471e-10  9.8641049506139070e-02  -1.5767928706836597e-02  -1.0000507808447386e-01  -4.6724880460751027e-03  -5.7316986632936556e-09  -1.4358062232477412e-01  1.4697381114272545e-01  1.4105412021674490e-08  4.3050846517945915e-16  -3.4150881304781059e-14  1.1406787186874418e-01  6.2557181416282387e-02  1.0641318219237173e-03  4.4738697972522695e-03  3.0038483044150651e-03  1.2582894176298408e-17  -1.7494754317433542e-16  -6.2063378918491164e-16  6.4446291134359041e-02  -4.5023787335887610e-09  6.8038146559919936e-05  -1.5651231525050566e-10  -6.7047841220941978e-09  -1.0564029692729252e-09  1.1428607557998681e-01  1.7115267835052250e-07  1.5297467006284390e-01  1.4038356172240474e-01  1.6600654335209303e-01  1.3601451115704874e-01  1.6673213252791835e-01  6.5480722832290811e-02  1.5581962449349089e-10  8.1329068968720289e-02  -1.8931943502478364e-05  -5.9707968164189162e-02  8.9849772594876240e-02  1.5539094306183604e-01  1.6954148934125921e-01  3.5082136746684346e-02  2.5030168481949352e-11  -8.1054915743066404e-17  2.4764726726978375e-16  -1.4587837620971772e-01  3.3989407939062924e-02  1.6416558549704943e-01  1.5193302162447439e-01  4.4741072774152150e-12  1.4176383692473712e-01  -9.4565983844736710e-18  -1.1539249377722600e-01  -1.0291202389949759e-01  1.4257483528701878e-01  4.8800026092154276e-05  2.5198572057666284e-09  -1.0116596671242478e-10  1.7936595460600210e-03  3.9959899922593200e-03  1.5573089388429506e-01  1.3111981298383582e-12  1.3949379968698075e-01  1.6481597725761940e-01  2.3407917393461484e-07  -1.1186824017077303e-01  5.2527826307206659e-03  1.6359560914598364e-01  1.8303950854326585e-02  1.0428297206272347e-01  6.8131061601890974e-02  -8.7150374729171240e-06  5.8987177446881067e-19  -2.2854384868660277e-09  -1.2913491027402306e-16  2.3913524101366609e-11  -7.5582109156183728e-14  -5.2259288899815105e-02  -1.3099319163130635e-06  1.4859506336458800e-01  -2.1839080382147799e-05  7.8158441510483789e-02  1.5791545648803706e-01  -9.1955641852829312e-02  -2.1057062200447482e-14  8.3088216285846325e-02  3.5403195479158145e-13  -3.7239735611583972e-17  1.3340443610849391e-16  1.6900218946629561e-01  9.7996558697717271e-11  -7.5997130567470927e-17  1.6930453354892605e-01  1.6905858188106748e-01  9.4393270155662040e-02  4.5968525373116938e-06  8.8882442724249096e-11 