<?xml version="1.0"?>
<VTKFile type="UnstructuredGrid"  version="0.1"  >
<UnstructuredGrid>
<Piece  NumberOfPoints="20054" NumberOfCells="39478">
<Points>
<DataArray  type="Float64"  NumberOfComponents="3"  format="ascii">1 0 0  0.9997998037428526 0.02000880895389431 0  0.9991992951284931 0.04000960653046352 0  0.9981987145960756 0.05999438456007805 0  0.9967984627705549 0.07995514128721501 0  0.9949991003022806 0.09988388457430118 0  0.9928013476425149 0.1197726351017051 0  0.9902060847549715 0.139613429562597 0  0.987214350763483 0.1593983238513969 0  0.9838273435359444 0.1791193962445356 0  0.9800464192046954 0.198768750572253 0  0.9758730916235354 0.2183385193801655 0  0.9713090317615876 0.237820867079336 0  0.9663560670342555 0.2572079930835849 0  0.9610161805715396 0.2764921349327862 0  0.9552915104240066 0.2956655714008991 0  0.9491843487067304 0.3147206255874884 0  0.9426971406815462 0.3336496679914983 0  0.9358324837779861 0.3524451195660473 0  0.9285931265532873 0.3710994547530225 0  0.9209819675918909 0.3896052044962556 0  0.9130020543448703 0.4079549592320781 0  0.9046565819097542 0.4261413718560547 0  0.8959488917512338 0.4441571606647087 0  0.8868824703632656 0.4619951122710622 0  0.8774609478731046 0.4796480844928215 0  0.8676880965878291 0.4971090092120542 0  0.8575678294839372 0.5143708952052096 0  0.8471041986406199 0.5314268309423539 0  0.8363013936173391 0.5482699873544935 0  0.8251637397763597 0.5648936205678837 0  0.8136956965509062 0.5812910746042258 0  0.8019018556596399 0.5974557840456699 0  0.7897869392681683 0.6133812766635599 0  0.777355798098326 0.6290611760098652 0  0.7646134094859813 0.6444892039702628 0  0.7515648753881492 0.6596591832778468 0  0.7382154203402046 0.6745650399864606 0  0.7245703893640189 0.6892008059026586 0  0.7106352458278521 0.7035606209753273 0  0.6964155692588616 0.7176387356420051 0  0.6819170531091018 0.7314295131309636 0  0.6671455024759069 0.7449274317181303 0  0.6521068317775753 0.7581270869379442 0  0.6368070623852795 0.7710231937472638 0  0.6212523202121545 0.7836105886414595 0  0.6054488332605282 0.795884231721841 0  0.5894029291282759 0.8078392087135958 0  0.5731210324752972 0.8194707329334278 0  0.5566096624511305 0.8307741472061095 0  0.5398754300847343 0.8417449257291802 0  0.5229250356374803 0.8523786758850435 0  0.5057652659204196 0.8626711399997378 0  0.4884029915768944 0.8726181970476778 0  0.4708451643315825 0.8822158643016828 0  0.45309881420708 0.8914602989276292 0  0.4351710467091336 0.9003477995230937 0  0.4170690399816468 0.9088748075993677 0  0.398800041932607 0.9170379090062476 0  0.3803713673320772 0.9248338352990368 0  0.3617903948834157 0.9322594650472057 0  0.3430645642688987 0.9393118250841893 0  0.3242013731709288 0.9459880916978206 0  0.3052083742700172 0.952285591760924 0  0.2860931722207478 0.9582018038016155 0  0.2668634206069304 0.963734359012881 0  0.2475268188771628 0.9688810422010291 0  0.2280911092620296 0.9736397926726377 0  0.2085640736741707 0.9780087050596407 0  0.1889535305924618 0.9819860300822225 0  0.1692673319315541 0.9855701752492174 0  0.1495133598980264 0.9887597054957302 0  0.1296995238344084 0.9915533437577263 0  0.1098337570523395 0.9939499714833577 0  0.08992401365612977 0.9959486290808237 0  0.06997826535799723 0.9975485163025836 0  0.05000449828625179 0.9987489925657699 0  0.03001070978771124 0.9995495772086734 0  0.01000490522562346 0.9999499496831961 0  -0.01000490522562333 0.9999499496831961 0  -0.03001070978771133 0.9995495772086734 0  -0.05000449828625144 0.9987489925657699 0  -0.06997826535799688 0.9975485163025836 0  -0.08992401365612987 0.9959486290808237 0  -0.1098337570523394 0.9939499714833577 0  -0.1296995238344082 0.9915533437577263 0  -0.1495133598980262 0.9887597054957303 0  -0.1692673319315537 0.9855701752492174 0  -0.1889535305924614 0.9819860300822226 0  -0.2085640736741705 0.9780087050596407 0  -0.2280911092620295 0.9736397926726377 0  -0.2475268188771627 0.9688810422010291 0  -0.2668634206069302 0.9637343590128811 0  -0.2860931722207475 0.9582018038016156 0  -0.3052083742700173 0.9522855917609239 0  -0.3242013731709289 0.9459880916978205 0  -0.3430645642688986 0.9393118250841894 0  -0.3617903948834154 0.9322594650472058 0  -0.380371367332077 0.924833835299037 0  -0.3988000419326071 0.9170379090062476 0  -0.4170690399816465 0.9088748075993678 0  -0.4351710467091335 0.9003477995230939 0  -0.4530988142070799 0.8914602989276292 0  -0.4708451643315824 0.8822158643016829 0  -0.4884029915768945 0.8726181970476778 0  -0.5057652659204197 0.8626711399997378 0  -0.5229250356374801 0.8523786758850437 0  -0.5398754300847342 0.8417449257291804 0  -0.5566096624511303 0.8307741472061098 0  -0.5731210324752971 0.8194707329334279 0  -0.589402929128276 0.8078392087135957 0  -0.6054488332605281 0.7958842317218411 0  -0.6212523202121542 0.7836105886414597 0  -0.6368070623852793 0.7710231937472639 0  -0.652106831777575 0.7581270869379444 0  -0.6671455024759069 0.7449274317181304 0  -0.6819170531091018 0.7314295131309636 0  -0.6964155692588616 0.7176387356420052 0  -0.7106352458278521 0.7035606209753273 0  -0.7245703893640187 0.6892008059026588 0  -0.7382154203402043 0.6745650399864608 0  -0.751564875388149 0.6596591832778469 0  -0.7646134094859813 0.6444892039702628 0  -0.7773557980983258 0.6290611760098654 0  -0.7897869392681683 0.6133812766635599 0  -0.8019018556596398 0.59745578404567 0  -0.8136956965509062 0.5812910746042258 0  -0.8251637397763595 0.5648936205678839 0  -0.836301393617339 0.5482699873544935 0  -0.8471041986406197 0.5314268309423542 0  -0.8575678294839372 0.5143708952052097 0  -0.8676880965878292 0.497109009212054 0  -0.8774609478731045 0.4796480844928216 0  -0.8868824703632656 0.4619951122710621 0  -0.8959488917512338 0.4441571606647088 0  -0.904656581909754 0.426141371856055 0  -0.9130020543448703 0.4079549592320783 0  -0.920981967591891 0.3896052044962555 0  -0.9285931265532872 0.3710994547530226 0  -0.9358324837779861 0.3524451195660473 0  -0.9426971406815462 0.3336496679914984 0  -0.9491843487067303 0.3147206255874888 0  -0.9552915104240065 0.2956655714008993 0  -0.9610161805715396 0.2764921349327862 0  -0.9663560670342555 0.2572079930835851 0  -0.9713090317615876 0.2378208670793361 0  -0.9758730916235353 0.2183385193801658 0  -0.9800464192046954 0.198768750572253 0  -0.9838273435359444 0.1791193962445354 0  -0.987214350763483 0.159398323851397 0  -0.9902060847549714 0.1396134295625972 0  -0.9928013476425149 0.1197726351017052 0  -0.9949991003022804 0.09988388457430147 0  -0.9967984627705549 0.07995514128721509 0  -0.9981987145960756 0.05999438456007793 0  -0.9991992951284931 0.04000960653046362 0  -0.9997998037428526 0.02000880895389464 0  -1 1.224646799147353e-16 0  -0.9997998037428526 -0.0200088089538944 0  -0.9991992951284931 -0.04000960653046338 0  -0.9981987145960756 -0.05999438456007812 0  -0.9967984627705549 -0.07995514128721484 0  -0.9949991003022806 -0.09988388457430078 0  -0.9928013476425149 -0.1197726351017049 0  -0.9902060847549715 -0.1396134295625965 0  -0.9872143507634831 -0.1593983238513963 0  -0.9838273435359444 -0.1791193962445356 0  -0.9800464192046953 -0.1987687505722532 0  -0.9758730916235354 -0.2183385193801655 0  -0.9713090317615876 -0.2378208670793363 0  -0.9663560670342556 -0.2572079930835848 0  -0.9610161805715396 -0.276492134932786 0  -0.9552915104240066 -0.2956655714008991 0  -0.9491843487067305 -0.3147206255874881 0  -0.9426971406815464 -0.3336496679914978 0  -0.9358324837779862 -0.3524451195660471 0  -0.9285931265532875 -0.371099454753022 0  -0.9209819675918909 -0.3896052044962557 0  -0.9130020543448704 -0.407954959232078 0  -0.9046565819097541 -0.4261413718560548 0  -0.8959488917512338 -0.4441571606647086 0  -0.8868824703632655 -0.4619951122710623 0  -0.8774609478731046 -0.4796480844928214 0  -0.8676880965878293 -0.4971090092120538 0  -0.8575678294839373 -0.5143708952052095 0  -0.84710419864062 -0.5314268309423537 0  -0.8363013936173395 -0.5482699873544929 0  -0.8251637397763596 -0.5648936205678838 0  -0.8136956965509061 -0.5812910746042259 0  -0.8019018556596399 -0.5974557840456699 0  -0.7897869392681682 -0.61338127666356 0  -0.777355798098326 -0.6290611760098652 0  -0.7646134094859816 -0.6444892039702625 0  -0.7515648753881492 -0.6596591832778468 0  -0.7382154203402048 -0.6745650399864603 0  -0.7245703893640192 -0.6892008059026583 0  -0.7106352458278522 -0.7035606209753272 0  -0.6964155692588621 -0.7176387356420046 0  -0.6819170531091017 -0.7314295131309637 0  -0.667145502475907 -0.7449274317181303 0  -0.6521068317775756 -0.758127086937944 0  -0.6368070623852792 -0.7710231937472641 0  -0.6212523202121544 -0.7836105886414596 0  -0.6054488332605283 -0.795884231721841 0  -0.5894029291282762 -0.8078392087135956 0  -0.5731210324752977 -0.8194707329334274 0  -0.5566096624511304 -0.8307741472061095 0  -0.5398754300847344 -0.8417449257291802 0  -0.5229250356374798 -0.8523786758850437 0  -0.5057652659204195 -0.8626711399997379 0  -0.4884029915768943 -0.872618197047678 0  -0.4708451643315825 -0.8822158643016828 0  -0.4530988142070805 -0.8914602989276289 0  -0.4351710467091333 -0.900347799523094 0  -0.4170690399816467 -0.9088748075993677 0  -0.3988000419326073 -0.9170379090062475 0  -0.3803713673320777 -0.9248338352990366 0  -0.3617903948834162 -0.9322594650472055 0  -0.3430645642688988 -0.9393118250841893 0  -0.3242013731709283 -0.9459880916978207 0  -0.3052083742700169 -0.9522855917609241 0  -0.2860931722207477 -0.9582018038016155 0  -0.2668634206069305 -0.963734359012881 0  -0.2475268188771631 -0.968881042201029 0  -0.2280911092620301 -0.9736397926726376 0  -0.2085640736741706 -0.9780087050596407 0  -0.1889535305924619 -0.9819860300822225 0  -0.1692673319315544 -0.9855701752492173 0  -0.1495133598980269 -0.9887597054957302 0  -0.1296995238344092 -0.9915533437577262 0  -0.1098337570523396 -0.9939499714833577 0  -0.08992401365612945 -0.9959486290808237 0  -0.06997826535799691 -0.9975485163025836 0  -0.05000449828625168 -0.9987489925657699 0  -0.0300107
[...]
<PointData  Scalars="Displacement"> 
<DataArray  type="Float64"  Name="Displacement"  format="ascii">0.0000000000000000e+00  0.0000000000000000e+00  0.0000000000000000e+00  0.0000000000000000e+00  0.0000000000000000e+00  0.0000000000000000e+00  0.0000000000000000e+00  0.0000000000000000e+00  0.0000000000000000e+00  0.0000000000000000e+00  0.0000000000000000e+00  0.0000000000000000e+00  0.0000000000000000e+00  0.0000000000000000e+00  0.0000000000000000e+00  0.0000000000000000e+00  0.0000000000000000e+00  0.0000000000000000e+00  0.0000000000000000e+00  0.0000000000000000e+00  0.0000000000000000e+00  0.0000000000000000e+00  0.0000000000000000e+00  0.0000000000000000e+00  0.0000000000000000e+00  0.0000000000000000e+00  0.0000000000000000e+00  0.0000000000000000e+00  0.0000000000000000e+00  0.0000000000000000e+00  0.0000000000000000e+00  0.0000000000000000e+00  0.0000000000000000e+00  0.0000000000000000e+00  0.0000000000000000e+00  0.0000000000000000e+00  0.0000000000000000e+00  0.0000000000000000e+00  0.0000000000000000e+00  0.0000000000000000e+00  0.0000000000000000e+00  0.0000000000000000e+00  0.0000000000000000e+00  0.0000000000000000e+00  0.0000000000000000e+00  0.0000000000000000e+00  0.0000000000000000e+00  0.0000000000000000e+00  0.0000000000000000e+00  0.0000000000000000e+00  0.0000000000000000e+00  0.0000000000000000e+00  0.0000000000000000e+00  0.0000000000000000e+00  0.0000000000000000e+00  0.0000000000000000e+00  0.0000000000000000e+00  0.0000000000000000e+00  0.0000000000000000e+00  0.0000000000000000e+00  0.0000000000000000e+00  0.0000000000000000e+00  0.0000000000000000e+00  0.0000000000000000e+00  0.0000000000000000e+00  0.0000000000000000e+00  0.0000000000000000e+00  0.0000000000000000e+00  0.0000000000000000e+00  0.0000000000000000e+00  0.0000000000000000e+00  0.0000000000000000e+00  0.0000000000000000e+00  0.0000000000000000e+00  0.0000000000000000e+00  0.0000000000000000e+00  0.0000000000000000e+00  0.0000000000000000e+00  0.0000000000000000e+00  0.0000000000000000e+00  0.0000000000000000e+00  0.0000000000000000e+00  0.0000000000000000e+00  0.0000000000000000e+00  0.0000000000000000e+00  0.0000000000000000e+00  0.0000000000000000e+00  0.0000000000000000e+00  0.0000000000000000e+00  0.0000000000000000e+00  0.0000000000000000e+00  0.0000000000000000e+00  0.0000000000000000e+00  0.0000000000000000e+00  0.0000000000000000e+00  0.0000000000000000e+00  0.0000000000000000e+00  0.0000000000000000e+00  0.0000000000000000e+00  0.0000000000000000e+00  0.0000000000000000e+00  0.0000000000000000e+00  0.0000000000000000e+00  0.0000000000000000e+00  0.0000000000000000e+00  0.0000000000000000e+00  0.0000000000000000e+00  0.0000000000000000e+00  0.0000000000000000e+00  0.0000000000000000e+00  0.0000000000000000e+00  0.0000000000000000e+00  0.0000000000000000e+00  0.0000000000000000e+00  0.0000000000000000e+00  0.0000000000000000e+00  0.0000000000000000e+00  0.0000000000000000e+00  0.0000000000000000e+00  0.0000000000000000e+00  0.0000000000000000e+00  0.0000000000000000e+00  0.0000000000000000e+00  0.0000000000000000e+00  0.0000000000000000e+00  0.0000000000000000e+00  0.0000000000000000e+00  0.0000000000000000e+00  0.0000000000000000e+00  0.0000000000000000e+00  0.0000000000000000e+00  0.0000000000000000e+00  0.0000000000000000e+00  0.0000000000000000e+00  0.0000000000000000e+00  0.0000000000000000e+00  0.0000000000000000e+00  0.0000000000000000e+00  0.0000000000000000e+00  0.0000000000000000e+00  0.0000000000000000e+00  0.0000000000000000e+00  0.0000000000000000e+00  0.0000000000000000e+00  0.0000000000000000e+00  0.0000000000000000e+00  0.0000000000000000e+00  0.0000000000000000e+00  0.0000000000000000e+00  0.0000000000000000e+00  0.0000000000000000e+00  0.0000000000000000e+00  0.0000000000000000e+00  0.0000000000000000e+00  0.0000000000000000e+00  0.0000000000000000e+00  0.0000000000000000e+00  0.0000000000000000e+00  0.0000000000000000e+00  0.0000000000000000e+00  0.0000000000000000e+00  0.0000000000000000e+00  0.0000000000000000e+00  0.0000000000000000e+00  0.0000000000000000e+00  0.0000000000000000e+00  0.0000000000000000e+00  0.0000000000000000e+00  0.0000000000000000e+00  0.0000000000000000e+00  0.0000000000000000e+00  0.0000000000000000e+00  0.0000000000000000e+00  0.0000000000000000e+00  0.0000000000000000e+00  0.0000000000000000e+00  0.0000000000000000e+00  0.0000000000000000e+00  0.0000000000000000e+00  0.0000000000000000e+00  0.0000000000000000e+00  0.0000000000000000e+00  0.0000000000000000e+00  0.0000000000000000e+00  0.0000000000000000e+00  0.0000000000000000e+00  0.0000000000000000e+00  0.0000000000000000e+00  0.0000000000000000e+00  0.0000000000000000e+00  0.0000000000000000e+00  0.0000000000000000e+00  0.0000000000000000e+00  0.0000000000000000e+00  0.0000000000000000e+00  0.0000000000000000e+00  0.0000000000000000e+00  0.0000000000000000e+00  0.0000000000000000e+00  0.0000000000000000e+00  0.0000000000000000e+00  0.0000000000000000e+00  0.0000000000000000e+00  0.0000000000000000e+00  0.0000000000000000e+00  0.0000000000000000e+00  0.0000000000000000e+00  0.0000000000000000e+00  0.0000000000000000e+00  0.0000000000000000e+00  0.0000000000000000e+00  0.0000000000000000e+00  0.0000000000000000e+00  0.0000000000000000e+00  0.0000000000000000e+00  0.0000000000000000e+00  0.0000000000000000e+00  0.0000000000000000e+00  0.0000000000000000e+00  0.0000000000000000e+00  0.0000000000000000e+00  0.0000000000000000e+00  0.0000000000000000e+00  0.0000000000000000e+00  0.0000000000000000e+00  0.0000000000000000e+00  0.0000000000000000e+00  0.0000000000000000e+00  0.0000000000000000e+00  0.0000000000000000e+00  0.0000000000000000e+00  0.0000000000000000e+00  0.0000000000000000e+00  0.0000000000000000e+00  0.0000000000000000e+00  0.0000000000000000e+00  0.0000000000000000e+00  0.0000000000000000e+00  0.0000000000000000e+00  0.0000000000000000e+00  0.0000000000000000e+00  0.0000000000000000e+00  0.0000000000000000e+00  0.0000000000000000e+00  0.0000000000000000e+00  0.0000000000000000e+00  0.0000000000000000e+00  0.0000000000000000e+00  0.0000000000000000e+00  0.0000000000000000e+00  0.0000000000000000e+00  0.0000000000000000e+00  0.0000000000000000e+00  0.0000000000000000e+00  0.0000000000000000e+00  0.0000000000000000e+00  0.0000000000000000e+00  0.0000000000000000e+00  0.0000000000000000e+00  0.0000000000000000e+00  0.0000000000000000e+00  0.0000000000000000e+00  0.0000000000000000e+00  0.0000000000000000e+00  0.0000000000000000e+00  0.0000000000000000e+00  0.0000000000000000e+00  0.0000000000000000e+00  0.0000000000000000e+00  0.0000000000000000e+00  0.0000000000000000e+00  0.0000000000000000e+00  0.0000000000000000e+00  0.0000000000000000e+00  0.0000000000000000e+00  0.0000000000000000e+00  0.0000000000000000e+00  0.0000000000000000e+00  0.0000000000000000e+00  0.0000000000000000e+00  0.0000000000000000e+00  0.0000000000000000e+00  0.0000000000000000e+00  0.0000000000000000e+00  0.0000000000000000e+00  0.0000000000000000e+00  0.0000000000000000e+00  0.0000000000000000e+00  0.0000000000000000e+00  0.0000000000000000e+00  0.0000000000000000e+00  0.0000000000000000e+00  0.0000000000000000e+00  0.0000000000000000e+00  0.0000000000000000e+00  0.0000000000000000e+00  0.0000000000000000e+00  0.0000000000000000e+00  0.0000000000000000e+00  0.0000000000000000e+00  0.0000000000000000e+00  0.0000000000000000e+00  0.0000000000000000e+00  0.0000000000000000e+00  0.0000000000000000e+00  0.0000000000000000e+00  0.0000000000000000e+00  0.0000000000000000e+00  0.0000000000000000e+00  0.0000000000000000e+00  0.0000000000000000e+00  0.0000000000000000e+00  0.0000000000000000e+00  0.0000000000000000e+00  2.5512045516228491e-02  1.1853573538403762e-01  1.1774963342896122e-01  1.1844695967077172e-01  1.1833859066268866e-01  1.1876585845403109e-01  9.2611040438574099e-02  5.0662107261958212e-03  -1.4460866809716548e-02  -5.1182462886962592e-02  -5.1177789854610002e-02  3.9035481006890173e-02  -9.4827172692620421e-02  -9.5001999162194095e-02  3.8040038324251291e-02  3.8745655155185368e-02  -1.2441015494367796e-01  -1.2235981028588082e-01  -1.2506185259249672e-01  -1.2623252763282128e-01  -1.3074708102035049e-01  -1.3113344461531973e-01  -1.2956812529054126e-01  5.4085919731741115e-02  5.3646737662927491e-02  3.5332160797944365e-02  -1.1832841033104946e-01  -1.3736751966369803e-01  -1.3735849204736936e-01  1.0746548807192019e-01  -1.3762909631406339e-01  3.8052364021672946e-02  3.3283063171294834e-02  1.1544641569276952e-01  -1.3541758247950231e-01  -1.2696706897386295e-01  -1.2531287493070131e-01  -1.2418261565934650e-01  -1.2412047334952077e-01  1.0680877978606103e-01  1.0213975958625647e-01  9.5390170883317055e-02  9.3055497578809335e-02  3.1836850430901217e-02  -1.2011557085449368e-01  -1.1789220065722687e-01  -1.1510348478630075e-01  -1.1444524444146957e-01  6.5943628216193706e-02  7.4350901808084555e-02  -6.9741573235021490e-02  1.0812903674874491e-01  8.6022557288049431e-02  1.0127272443817045e-01  -1.0213713163400238e-01  3.1012682613229422e-02  -1.1618691842341264e-01  -1.0223174368999340e-01  4.4142984499036197e-02  -9.8964128015180994e-02  -1.0031415483156124e-01  -4.5561237151815905e-02  -9.7534913629290607e-02  -1.0336672783216150e-01  4.3962144014651795e-02  3.4789961306390497e-02  5.1860801857228155e-02  1.0171627139462577e-01  5.1145179624122343e-02  3.1236618294442017e-02  4.3646111090312634e-02  6.8636571657940085e-02  1.3556815399540024e-02  3.0509753820243568e-02  3.1388700727698511e-02  4.8571560139033208e-02  -9.4977306886463594e-02  6.3279493052513736e-02  4.8755965885995581e-02  -3.4041627111003982e-02  -8.7077073324654600e-02  5.5800635571566719e-02  -8.2321767530547721e-02  -8.4599373544181941e-02  -7.8506565526369185e-02  3.0837328202838035e-02  -8.1412339548346119e-02  -7.6209358368315328e-02  -7.5729515588649557e-02  5.0372294106272843e-02  -6.6105111481273612e-02  -7.1640773175908223e-02  1.7226029125713006e-02  -6.9644399817765740e-02  -6.4676989544941513e-02  3.1269483498117798e-02  -8.1766839477302095e-02  -6.6536029507628255e-02  -7.5998253997746595e-02  -9.8424748560366579e-02  -2.3403800664538982e-02  -7.5902763459358077e-02  -6.6273917939143015e-02  8.9799008042068376e-02  1.1381953419980217e-01  1.1431025502904872e-01  7.8167916027516868e-02  -9.8372424219292390e-02  -8.4982791437260646e-02  -5.2378632220963957e-02  7.0916925098070197e-02  -5.1613402266142354e-02  -5.6840104557972636e-02  6.0592526340567013e-02  4.8147465955034344e-02  -1.0331152717782414e-01  -4.7435086977628382e-02  -6.3064774808677060e-02  -5.9956917810035884e-02  3.0583034417820114e-02  8.5721029253149963e-02  -1.3605011197226483e-01  3.9075667300185746e-02  -1.0039290473664877e-01  -1.1876859969669773e-01  -5.2603356154685914e-02  -5.9852356272462104e-02  -4.3218409169945120e-02  -1.2332383005418081e-01  -1.2180321421993374e-01  -4.8576690910998546e-02  -1.1728978576347159e-01  1.3379783267324401e-02  1.0378790826856159e-01  6.6441188351652677e-02  -9.8049457385081529e-02  -5.4349979443952132e-02  3.8328530079145703e-02  5.0428222355742215e-02  4.1764233031863017e-02  2.9848225765422211e-02  3.8544042942730290e-02  -1.3778741882399873e-01  7.0711445414421967e-02  5.8822702688033121e-02  -1.3748344529465117e-01  -1.3715200697957283e-01  3.9007144991496961e-02  3.3023440887223129e-02  -9.5589961174549539e-03  -3.2092868229646764e-02  5.4189745691771672e-02  5.0672570459905232e-02  -1.3483608445846904e-01  -1.3447654541694309e-01  -1.0342376379039890e-01  -2.8340234420563864e-02  -1.3750379565802551e-01  -3.4687876075175317e-02  -2.8894414982526751e-02  -2.9511738257432276e-02  -1.3770360786650229e-01  -3.3425027921529175e-02  -3.4989545145667336e-02  -1.2989911154219624e-01  1.2009140410707854e-01  -1.3393115730773050e-01  -6.3077957520533551e-02  -2.7726949792506173e-02  -1.3720702731544127e-01  7.6168470120971069e-02  2.9295277873969648e-02  -1.3743437215890975e-01  5.2010767678962691e-02  -2.5050768277068439e-02  9.7394821914050106e-02  -2.3377689003613970e-02  -1.2892093383965827e-01  -2.4820568584233805e-02  1.1285663006335792e-01  -1.3642182858385624e-01  1.1806696817706488e-01  6.6357237027594246e-02  3.4133954841845775e-02  -3.2976165609384149e-02  1.0856051027677970e-01  -1.3898926907309319e-02  1.1423348611509804e-01  -2.6112973078940036e-02  -1.2187773831127852e-01  -2.7814564774122735e-02  3.2169769157639791e-02  -2.1130562548190960e-02  -2.5985351131366709e-02  1.1767434776411678e-01  4.6525446400277691e-02  -1.3290265747466595e-01  -1.3533032310347615e-01  1.2026403700346137e-01  -3.4758689003713858e-02  5.0185510063658262e-02  7.9283516499295700e-02  1.1747776808776302e-01  -2.0359803111808013e-02  4.9487352683693836e-02  -1.3504908956125281e-01  -1.3446846165886525e-01  3.7068418682786881e-02  -8.2377108646624259e-02  -1.3444159046190149e-01  -1.2598653476764832e-01  3.2977426657287867e-02  2.9619324568986378e-02  -2.1926879833156349e-02  -2.0391694739479466e-02  -1.3751462189100125e-01  1.0923935267560897e-01  -2.4677805359822051e-02  -1.0697020258170650e-02  -4.4986347277531168e-02  -1.0725828498257235e-01  -7.1282218127913036e-02  6.3278209041210010e-02  6.5898233092142287e-03  -4.2518320105391846e-02  -2.4929445139008605e-02  -9.8769882180048729e-02  -1.6784457716724412e-02  -4.4291388057311427e-02  -1.9406690606061369e-02  -4.5044242434036083e-02  -2.5909841944862167e-02  -1.6052075578759050e-02  -1.1696796607407700e-01  -1.8542650775639234e-02  9.6723291106299694e-02  5.4249709085744752e-02  -1.2683881959752666e-01  -1.2827259699119123e-01  3.7600621741011628e-02  4.0457582130945344e-02  -1.6606974041699869e-02  2.2496395664425781e-02  -4.6390865361529941e-02  1.1978587905416731e-01  -1.6270192600055855e-02  -1.6271398827134007e-02  -1.6270364763350316e-02  5.0688507853648791e-02  1.1132338024590220e-01  1.0053494509726085e-01  1.0640814602002266e-01  3.8787665995956802e-02  2.9756362943837204e-02  -1.2242282803388486e-01  5.5062330848211938e-02  -1.3710183235053297e-01  1.1112513132259717e-01  -3.6105799232435079e-02  -1.5116513114861813e-02  -3.7517990396545305e-02  -9.5889915772475576e-02  -1.2855515281018567e-01  7.0284221711437514e-02  1.0744243914238247e-01  5.8842294184649077e-02  -1.1707444805235721e-01  -5.4614020874507486e-02  -3.7309777755747564e-02  7.0675532180165437e-02  -1.2925686825960963e-02  5.1008319077298518e-02  1.0338591158611754e-01  -1.3112855634446097e-01  -1.3475739077203128e-01  -9.2692790187692289e-02  4.8374883215807948e-02  4.4456058361347139e-02  5.1253497357880762e-02  4.9361406869677896e-02  4.1670190604324184e-02  3.5393757496718026e-02  3.3922579396051054e-02  -3.9845645173690131e-02  -9.1498531318172024e-02  -1.2534739933147851e-01  4.0779492526236437e-02  -1.6748648251980087e-02  -1.2970169583238864e-01  6.3345946096899641e-02  3.3212126828634142e-02  1.0180903185719839e-01  -1.9403634239404919e-02  9.1358443780253276e-02  3.3224080422780175e-02  -1.2135358809421397e-02  1.0619771052445290e-01  -1.2600336357583798e-02  -1.3583012825385045e-02  -1.5340003775741941e-02  3.0837087602489769e-02  2.9788282822353573e-02  4.5153687129661738e-02  3.6812253351803284e-02  -7.2680373467844769e-02  9.4329733307119117e-03  -1.1594545738250522e-01  5.9157705247473130e-02  -4.1040526812272431e-02  -1.5130641897528751e-02  1.0919991412243478e-01  -3.4774000832385916e-02  4.2457468269074844e-02  -1.3291006618560833e-01  3.4033507563285832e-02  3.5457772339811941e-02  7.6107766338867899e-02  -1.1543218046592647e-01  -8.5158124844256264e-02  -1.2187739849900106e-02  -1.3648961828175366e-01  -1.3765893028657675e-01  -1.0450453491233731e-02  5.0011848543441595e-02  -1.0561615971057538e-02  -1.0185010799968511e-02  -1.1596597443258927e-01  6.5236985611487469e-02  5.0614702988447904e-02  3.8416260374703727e-02  -1.0504698940177918e-02  -1.1489327612756182e-01  -3.4954210043289045e-02  1.1933574667643608e-01  4.8762902239493637e-02  -1.2669572097925599e-01  1.1954530372766535e-01  4.9024347333230661e-02  3.4727559532159884e-02  -7.1232208172901018e-02  -1.3370779150161224e-01  1.1865497785014621e-01  -1.0915046488383326e-01  -1.0173316232095854e-01  -7.0911465091332435e-02  -1.1122041964737506e-02  -1.3225323866688393e-01  -1.3763195344339116e-01  -1.0359909560417027e-02  -7.6316822839531673e-02  -6.9411473080593949e-02  -9.1192979119105594e-03  -1.0804620594166103e-01  -8.3943652732531571e-03  -1.2372189369617591e-01  -1.0908210432511352e-01  9.9704572188297994e-02  2.9283113398745467e-02  -1.0523749267265185e-01  3.1164356969631282e-02  3.3679787089353617e-02  -1.3290058140769059e-01  -9.7906246493022434e-03  4.7869852305665317e-02  -1.0458488085816865e-01  4.5994884943455876e-02  -1.0459071275014978e-01  -9.9360496390585210e-02  2.9503261569267008e-02  -1.3011025411479052e-01  -8.2196618329456895e-03  -2.7220952430490098e-02  -1.3076029979299414e-01  5.0801449121012310e-02  8.8527428021789131e-02  -1.0053173852628251e-01  -2.4763563242254913e-02  3.1237729799507303e-02  4.1241318949094788e-02  -8.1195042849895784e-03  1.1654518152724135e-01  -7.6942367228585752e-03  -1.2382264289117374e-01  1.1944838784738111e-01  -1.2542464603152012e-02  3.4815127637371636e-02  -7.4921370369875218e-03  -1.3132323251182262e-01  -8.4359621603287693e-03  6.6847485743616486e-02  7.2210951045451416e-02  -7.1923644119172583e-02  7.6747049874523507e-02  -8.1097168256995672e-03  -1.2447864342840147e-01  6.6491658314946300e-02  -2.5881376387253102e-02  2.6696175911440637e-02  -1.2928451240162331e-01  -7.8484357072288076e-03  -7.7512668009006355e-03  1.0609388416494492e-01  -9.0252968946268608e-02  1.0194688334638408e-01  -1.2697816135176290e-01  1.1024891643698229e-01  6.6596678194846895e-02  -7.2534373129118524e-03  -1.1860959387856858e-01  -1.2961924408731840e-01  -9.4822417943811993e-02  -9.6214119429002404e-02  8.8905413682415543e-02  5.0652340031442852e-02  3.3873071204185173e-02  5.1713225994358555e-02  -1.2719912290423427e-01  3.8547663716905260e-02  1.1631500659581960e-01  -1.2140848655340372e-01  -6.0797820460615831e-03  -2.8643060900028113e-02  1.3024743522407858e-02  -4.6040011750078332e-02  -1.2392722550360313e-01  5.2778481466409718e-02  -1.1706784351112848e-01  -6.5386807670415863e-03  -6.1589042413467765e-03  -1.6633910835313032e-02  -4.3817557107469138e-02  -1.0723965593584658e-01  -1.3203817016957764e-01  -9.6636887101906488e-02  -1.1575503669135601e-01  -1.1446284209810423e-01  1.3659971051347879e-02  -1.2819824605010252e-01  1.1907478497124796e-01  4.8633577560680305e-02  9.4393500187379895e-02  4.2727508538887994e-02  1.1838230444582892e-01  7.1672887433914534e-02  -9.2844192434439810e-02  7.8917406520025615e-02  -1.3643580588304671e-01  3.0156637390688544e-02  -1.5562901632291425e-02  1.1958421711176385e-01  1.1253807722750724e-01  5.9354917859709665e-02  -8.8656396417286065e-02  -6.3801232513760135e-03  -6.8705950662751704e-03  3.8601069195355095e-02  -7.7610946035906903e-02  1.1956310458482296e-01  1.1877829823965141e-01  -5.9596047103308271e-02  5.0090221452511983e-02  -6.0434111625267692e-03  3.4094246936751685e-02  4.5733012668270553e-02  1.1449366133823864e-01  -1.3365221421237314e-01  -1.1483918018881235e-01  -9.1377537565690517e-02  -1.2056203243523381e-01  -1.1428933881658979e-01  7.2935604025115619e-02  -7.9887673049404667e-02  1.1279369904338242e-01  1.1943622229830489e-01  -1.2961080894735233e-01  3.3570082020915930e-02  -1.1188653575803653e-01  1.2022725923241741e-01  -9.4008816370166809e-02  4.4394988424932162e-04  -3.9926935096922481e-02  -1.3495746033437503e-01  -4.8745904916100277e-03  -1.0963806985834297e-01  -5.2855519836328500e-03  -7.8953002061220967e-02  -3.2285943904185335e-02  5.0009319926063132e-02  -1.3564364509275451e-01  6.0854264578684002e-02  -1.3571778070418450e-01  7.6856405781317916e-02  7.7324737027936435e-02  4.7475343353239274e-02  -3.0538834475278658e-02  7.9716792426754016e-02  -2.1543940939602154e-02  -4.2893617288732909e-03  -7.8897328666421053e-03  1.1485746432039083e-01  -7.5461134616444228e-02  -5.3015658174330425e-03  1.1187156087710254e-01  1.05