<?xml version="1.0"?>
<VTKFile type="UnstructuredGrid"  version="0.1"  >
<UnstructuredGrid>
<Piece  NumberOfPoints="20054" NumberOfCells="39478">
<Points>
<DataArray  type="Float64"  NumberOfComponents="3"  format="ascii">1 0 0  0.9997998037428526 0.02000880895389431 0  0.9991992951284931 0.04000960653046352 0  0.9981987145960756 0.05999438456007805 0  0.9967984627705549 0.07995514128721501 0  0.9949991003022806 0.09988388457430118 0  0.9928013476425149 0.1197726351017051 0  0.9902060847549715 0.139613429562597 0  0.987214350763483 0.1593983238513969 0  0.9838273435359444 0.1791193962445356 0  0.9800464192046954 0.198768750572253 0  0.9758730916235354 0.2183385193801655 0  0.9713090317615876 0.237820867079336 0  0.9663560670342555 0.2572079930835849 0  0.9610161805715396 0.2764921349327862 0  0.9552915104240066 0.2956655714008991 0  0.9491843487067304 0.3147206255874884 0  0.9426971406815462 0.3336496679914983 0  0.9358324837779861 0.3524451195660473 0  0.9285931265532873 0.3710994547530225 0  0.9209819675918909 0.3896052044962556 0  0.9130020543448703 0.4079549592320781 0  0.9046565819097542 0.4261413718560547 0  0.8959488917512338 0.4441571606647087 0  0.8868824703632656 0.4619951122710622 0  0.8774609478731046 0.4796480844928215 0  0.8676880965878291 0.4971090092120542 0  0.8575678294839372 0.5143708952052096 0  0.8471041986406199 0.5314268309423539 0  0.8363013936173391 0.5482699873544935 0  0.8251637397763597 0.5648936205678837 0  0.8136956965509062 0.5812910746042258 0  0.8019018556596399 0.5974557840456699 0  0.7897869392681683 0.6133812766635599 0  0.777355798098326 0.6290611760098652 0  0.7646134094859813 0.6444892039702628 0  0.7515648753881492 0.6596591832778468 0  0.7382154203402046 0.6745650399864606 0  0.7245703893640189 0.6892008059026586 0  0.7106352458278521 0.7035606209753273 0  0.6964155692588616 0.7176387356420051 0  0.6819170531091018 0.7314295131309636 0  0.6671455024759069 0.7449274317181303 0  0.6521068317775753 0.7581270869379442 0  0.6368070623852795 0.7710231937472638 0  0.6212523202121545 0.7836105886414595 0  0.6054488332605282 0.795884231721841 0  0.5894029291282759 0.8078392087135958 0  0.5731210324752972 0.8194707329334278 0  0.5566096624511305 0.8307741472061095 0  0.5398754300847343 0.8417449257291802 0  0.5229250356374803 0.8523786758850435 0  0.5057652659204196 0.8626711399997378 0  0.4884029915768944 0.8726181970476778 0  0.4708451643315825 0.8822158643016828 0  0.45309881420708 0.8914602989276292 0  0.4351710467091336 0.9003477995230937 0  0.4170690399816468 0.9088748075993677 0  0.398800041932607 0.9170379090062476 0  0.3803713673320772 0.9248338352990368 0  0.3617903948834157 0.9322594650472057 0  0.3430645642688987 0.9393118250841893 0  0.3242013731709288 0.9459880916978206 0  0.3052083742700172 0.952285591760924 0  0.2860931722207478 0.9582018038016155 0  0.2668634206069304 0.963734359012881 0  0.2475268188771628 0.9688810422010291 0  0.2280911092620296 0.9736397926726377 0  0.2085640736741707 0.9780087050596407 0  0.1889535305924618 0.9819860300822225 0  0.1692673319315541 0.9855701752492174 0  0.1495133598980264 0.9887597054957302 0  0.1296995238344084 0.9915533437577263 0  0.1098337570523395 0.9939499714833577 0  0.08992401365612977 0.9959486290808237 0  0.06997826535799723 0.9975485163025836 0  0.05000449828625179 0.9987489925657699 0  0.03001070978771124 0.9995495772086734 0  0.01000490522562346 0.9999499496831961 0  -0.01000490522562333 0.9999499496831961 0  -0.03001070978771133 0.9995495772086734 0  -0.05000449828625144 0.9987489925657699 0  -0.06997826535799688 0.9975485163025836 0  -0.08992401365612987 0.9959486290808237 0  -0.1098337570523394 0.9939499714833577 0  -0.1296995238344082 0.9915533437577263 0  -0.1495133598980262 0.9887597054957303 0  -0.1692673319315537 0.9855701752492174 0  -0.1889535305924614 0.9819860300822226 0  -0.2085640736741705 0.9780087050596407 0  -0.2280911092620295 0.9736397926726377 0  -0.2475268188771627 0.9688810422010291 0  -0.2668634206069302 0.9637343590128811 0  -0.2860931722207475 0.9582018038016156 0  -0.3052083742700173 0.9522855917609239 0  -0.3242013731709289 0.9459880916978205 0  -0.3430645642688986 0.9393118250841894 0  -0.3617903948834154 0.9322594650472058 0  -0.380371367332077 0.924833835299037 0  -0.3988000419326071 0.9170379090062476 0  -0.4170690399816465 0.9088748075993678 0  -0.4351710467091335 0.9003477995230939 0  -0.4530988142070799 0.8914602989276292 0  -0.4708451643315824 0.8822158643016829 0  -0.4884029915768945 0.8726181970476778 0  -0.5057652659204197 0.8626711399997378 0  -0.5229250356374801 0.8523786758850437 0  -0.5398754300847342 0.8417449257291804 0  -0.5566096624511303 0.8307741472061098 0  -0.5731210324752971 0.8194707329334279 0  -0.589402929128276 0.8078392087135957 0  -0.6054488332605281 0.7958842317218411 0  -0.6212523202121542 0.7836105886414597 0  -0.6368070623852793 0.7710231937472639 0  -0.652106831777575 0.7581270869379444 0  -0.6671455024759069 0.7449274317181304 0  -0.6819170531091018 0.7314295131309636 0  -0.6964155692588616 0.7176387356420052 0  -0.7106352458278521 0.7035606209753273 0  -0.7245703893640187 0.6892008059026588 0  -0.7382154203402043 0.6745650399864608 0  -0.751564875388149 0.6596591832778469 0  -0.7646134094859813 0.6444892039702628 0  -0.7773557980983258 0.6290611760098654 0  -0.7897869392681683 0.6133812766635599 0  -0.8019018556596398 0.59745578404567 0  -0.8136956965509062 0.5812910746042258 0  -0.8251637397763595 0.5648936205678839 0  -0.836301393617339 0.5482699873544935 0  -0.8471041986406197 0.5314268309423542 0  -0.8575678294839372 0.5143708952052097 0  -0.8676880965878292 0.497109009212054 0  -0.8774609478731045 0.4796480844928216 0  -0.8868824703632656 0.4619951122710621 0  -0.8959488917512338 0.4441571606647088 0  -0.904656581909754 0.426141371856055 0  -0.9130020543448703 0.4079549592320783 0  -0.920981967591891 0.3896052044962555 0  -0.9285931265532872 0.3710994547530226 0  -0.9358324837779861 0.3524451195660473 0  -0.9426971406815462 0.3336496679914984 0  -0.9491843487067303 0.3147206255874888 0  -0.9552915104240065 0.2956655714008993 0  -0.9610161805715396 0.2764921349327862 0  -0.9663560670342555 0.2572079930835851 0  -0.9713090317615876 0.2378208670793361 0  -0.9758730916235353 0.2183385193801658 0  -0.9800464192046954 0.198768750572253 0  -0.9838273435359444 0.1791193962445354 0  -0.987214350763483 0.159398323851397 0  -0.9902060847549714 0.1396134295625972 0  -0.9928013476425149 0.1197726351017052 0  -0.9949991003022804 0.09988388457430147 0  -0.9967984627705549 0.07995514128721509 0  -0.9981987145960756 0.05999438456007793 0  -0.9991992951284931 0.04000960653046362 0  -0.9997998037428526 0.02000880895389464 0  -1 1.224646799147353e-16 0  -0.9997998037428526 -0.0200088089538944 0  -0.9991992951284931 -0.04000960653046338 0  -0.9981987145960756 -0.05999438456007812 0  -0.9967984627705549 -0.07995514128721484 0  -0.9949991003022806 -0.09988388457430078 0  -0.9928013476425149 -0.1197726351017049 0  -0.9902060847549715 -0.1396134295625965 0  -0.9872143507634831 -0.1593983238513963 0  -0.9838273435359444 -0.1791193962445356 0  -0.9800464192046953 -0.1987687505722532 0  -0.9758730916235354 -0.2183385193801655 0  -0.9713090317615876 -0.2378208670793363 0  -0.9663560670342556 -0.2572079930835848 0  -0.9610161805715396 -0.276492134932786 0  -0.9552915104240066 -0.2956655714008991 0  -0.9491843487067305 -0.3147206255874881 0  -0.9426971406815464 -0.3336496679914978 0  -0.9358324837779862 -0.3524451195660471 0  -0.9285931265532875 -0.371099454753022 0  -0.9209819675918909 -0.3896052044962557 0  -0.9130020543448704 -0.407954959232078 0  -0.9046565819097541 -0.4261413718560548 0  -0.8959488917512338 -0.4441571606647086 0  -0.8868824703632655 -0.4619951122710623 0  -0.8774609478731046 -0.4796480844928214 0  -0.8676880965878293 -0.4971090092120538 0  -0.8575678294839373 -0.5143708952052095 0  -0.84710419864062 -0.5314268309423537 0  -0.8363013936173395 -0.5482699873544929 0  -0.8251637397763596 -0.5648936205678838 0  -0.8136956965509061 -0.5812910746042259 0  -0.8019018556596399 -0.5974557840456699 0  -0.7897869392681682 -0.61338127666356 0  -0.777355798098326 -0.6290611760098652 0  -0.7646134094859816 -0.6444892039702625 0  -0.7515648753881492 -0.6596591832778468 0  -0.7382154203402048 -0.6745650399864603 0  -0.7245703893640192 -0.6892008059026583 0  -0.7106352458278522 -0.7035606209753272 0  -0.6964155692588621 -0.7176387356420046 0  -0.6819170531091017 -0.7314295131309637 0  -0.667145502475907 -0.7449274317181303 0  -0.6521068317775756 -0.758127086937944 0  -0.6368070623852792 -0.7710231937472641 0  -0.6212523202121544 -0.7836105886414596 0  -0.6054488332605283 -0.795884231721841 0  -0.5894029291282762 -0.8078392087135956 0  -0.5731210324752977 -0.8194707329334274 0  -0.5566096624511304 -0.8307741472061095 0  -0.5398754300847344 -0.8417449257291802 0  -0.5229250356374798 -0.8523786758850437 0  -0.5057652659204195 -0.8626711399997379 0  -0.4884029915768943 -0.872618197047678 0  -0.4708451643315825 -0.8822158643016828 0  -0.4530988142070805 -0.8914602989276289 0  -0.4351710467091333 -0.900347799523094 0  -0.4170690399816467 -0.9088748075993677 0  -0.3988000419326073 -0.9170379090062475 0  -0.3803713673320777 -0.9248338352990366 0  -0.3617903948834162 -0.9322594650472055 0  -0.3430645642688988 -0.9393118250841893 0  -0.3242013731709283 -0.9459880916978207 0  -0.3052083742700169 -0.9522855917609241 0  -0.2860931722207477 -0.9582018038016155 0  -0.2668634206069305 -0.963734359012881 0  -0.2475268188771631 -0.968881042201029 0  -0.2280911092620301 -0.9736397926726376 0  -0.2085640736741706 -0.9780087050596407 0  -0.1889535305924619 -0.9819860300822225 0  -0.1692673319315544 -0.9855701752492173 0  -0.1495133598980269 -0.9887597054957302 0  -0.1296995238344092 -0.9915533437577262 0  -0.1098337570523396 -0.9939499714833577 0  -0.08992401365612945 -0.9959486290808237 0  -0.06997826535799691 -0.9975485163025836 0  -0.05000449828625168 -0.9987489925657699 0  -0.030010709787
[...]
<PointData  Scalars="Displacement"> 
<DataArray  type="Float64"  Name="Displacement"  format="ascii">0.0000000000000000e+00  0.0000000000000000e+00  0.0000000000000000e+00  0.0000000000000000e+00  0.0000000000000000e+00  0.0000000000000000e+00  0.0000000000000000e+00  0.0000000000000000e+00  0.0000000000000000e+00  0.0000000000000000e+00  0.0000000000000000e+00  0.0000000000000000e+00  0.0000000000000000e+00  0.0000000000000000e+00  0.0000000000000000e+00  0.0000000000000000e+00  0.0000000000000000e+00  0.0000000000000000e+00  0.0000000000000000e+00  0.0000000000000000e+00  0.0000000000000000e+00  0.0000000000000000e+00  0.0000000000000000e+00  0.0000000000000000e+00  0.0000000000000000e+00  0.0000000000000000e+00  0.0000000000000000e+00  0.0000000000000000e+00  0.0000000000000000e+00  0.0000000000000000e+00  0.0000000000000000e+00  0.0000000000000000e+00  0.0000000000000000e+00  0.0000000000000000e+00  0.0000000000000000e+00  0.0000000000000000e+00  0.0000000000000000e+00  0.0000000000000000e+00  0.0000000000000000e+00  0.0000000000000000e+00  0.0000000000000000e+00  0.0000000000000000e+00  0.0000000000000000e+00  0.0000000000000000e+00  0.0000000000000000e+00  0.0000000000000000e+00  0.0000000000000000e+00  0.0000000000000000e+00  0.0000000000000000e+00  0.0000000000000000e+00  0.0000000000000000e+00  0.0000000000000000e+00  0.0000000000000000e+00  0.0000000000000000e+00  0.0000000000000000e+00  0.0000000000000000e+00  0.0000000000000000e+00  0.0000000000000000e+00  0.0000000000000000e+00  0.0000000000000000e+00  0.0000000000000000e+00  0.0000000000000000e+00  0.0000000000000000e+00  0.0000000000000000e+00  0.0000000000000000e+00  0.0000000000000000e+00  0.0000000000000000e+00  0.0000000000000000e+00  0.0000000000000000e+00  0.0000000000000000e+00  0.0000000000000000e+00  0.0000000000000000e+00  0.0000000000000000e+00  0.0000000000000000e+00  0.0000000000000000e+00  0.0000000000000000e+00  0.0000000000000000e+00  0.0000000000000000e+00  0.0000000000000000e+00  0.0000000000000000e+00  0.0000000000000000e+00  0.0000000000000000e+00  0.0000000000000000e+00  0.0000000000000000e+00  0.0000000000000000e+00  0.0000000000000000e+00  0.0000000000000000e+00  0.0000000000000000e+00  0.0000000000000000e+00  0.0000000000000000e+00  0.0000000000000000e+00  0.0000000000000000e+00  0.0000000000000000e+00  0.0000000000000000e+00  0.0000000000000000e+00  0.0000000000000000e+00  0.0000000000000000e+00  0.0000000000000000e+00  0.0000000000000000e+00  0.0000000000000000e+00  0.0000000000000000e+00  0.0000000000000000e+00  0.0000000000000000e+00  0.0000000000000000e+00  0.0000000000000000e+00  0.0000000000000000e+00  0.0000000000000000e+00  0.0000000000000000e+00  0.0000000000000000e+00  0.0000000000000000e+00  0.0000000000000000e+00  0.0000000000000000e+00  0.0000000000000000e+00  0.0000000000000000e+00  0.0000000000000000e+00  0.0000000000000000e+00  0.0000000000000000e+00  0.0000000000000000e+00  0.0000000000000000e+00  0.0000000000000000e+00  0.0000000000000000e+00  0.0000000000000000e+00  0.0000000000000000e+00  0.0000000000000000e+00  0.0000000000000000e+00  0.0000000000000000e+00  0.0000000000000000e+00  0.0000000000000000e+00  0.0000000000000000e+00  0.0000000000000000e+00  0.0000000000000000e+00  0.0000000000000000e+00  0.0000000000000000e+00  0.0000000000000000e+00  0.0000000000000000e+00  0.0000000000000000e+00  0.0000000000000000e+00  0.0000000000000000e+00  0.0000000000000000e+00  0.0000000000000000e+00  0.0000000000000000e+00  0.0000000000000000e+00  0.0000000000000000e+00  0.0000000000000000e+00  0.0000000000000000e+00  0.0000000000000000e+00  0.0000000000000000e+00  0.0000000000000000e+00  0.0000000000000000e+00  0.0000000000000000e+00  0.0000000000000000e+00  0.0000000000000000e+00  0.0000000000000000e+00  0.0000000000000000e+00  0.0000000000000000e+00  0.0000000000000000e+00  0.0000000000000000e+00  0.0000000000000000e+00  0.0000000000000000e+00  0.0000000000000000e+00  0.0000000000000000e+00  0.0000000000000000e+00  0.0000000000000000e+00  0.0000000000000000e+00  0.0000000000000000e+00  0.0000000000000000e+00  0.0000000000000000e+00  0.0000000000000000e+00  0.0000000000000000e+00  0.0000000000000000e+00  0.0000000000000000e+00  0.0000000000000000e+00  0.0000000000000000e+00  0.0000000000000000e+00  0.0000000000000000e+00  0.0000000000000000e+00  0.0000000000000000e+00  0.0000000000000000e+00  0.0000000000000000e+00  0.0000000000000000e+00  0.0000000000000000e+00  0.0000000000000000e+00  0.0000000000000000e+00  0.0000000000000000e+00  0.0000000000000000e+00  0.0000000000000000e+00  0.0000000000000000e+00  0.0000000000000000e+00  0.0000000000000000e+00  0.0000000000000000e+00  0.0000000000000000e+00  0.0000000000000000e+00  0.0000000000000000e+00  0.0000000000000000e+00  0.0000000000000000e+00  0.0000000000000000e+00  0.0000000000000000e+00  0.0000000000000000e+00  0.0000000000000000e+00  0.0000000000000000e+00  0.0000000000000000e+00  0.0000000000000000e+00  0.0000000000000000e+00  0.0000000000000000e+00  0.0000000000000000e+00  0.0000000000000000e+00  0.0000000000000000e+00  0.0000000000000000e+00  0.0000000000000000e+00  0.0000000000000000e+00  0.0000000000000000e+00  0.0000000000000000e+00  0.0000000000000000e+00  0.0000000000000000e+00  0.0000000000000000e+00  0.0000000000000000e+00  0.0000000000000000e+00  0.0000000000000000e+00  0.0000000000000000e+00  0.0000000000000000e+00  0.0000000000000000e+00  0.0000000000000000e+00  0.0000000000000000e+00  0.0000000000000000e+00  0.0000000000000000e+00  0.0000000000000000e+00  0.0000000000000000e+00  0.0000000000000000e+00  0.0000000000000000e+00  0.0000000000000000e+00  0.0000000000000000e+00  0.0000000000000000e+00  0.0000000000000000e+00  0.0000000000000000e+00  0.0000000000000000e+00  0.0000000000000000e+00  0.0000000000000000e+00  0.0000000000000000e+00  0.0000000000000000e+00  0.0000000000000000e+00  0.0000000000000000e+00  0.0000000000000000e+00  0.0000000000000000e+00  0.0000000000000000e+00  0.0000000000000000e+00  0.0000000000000000e+00  0.0000000000000000e+00  0.0000000000000000e+00  0.0000000000000000e+00  0.0000000000000000e+00  0.0000000000000000e+00  0.0000000000000000e+00  0.0000000000000000e+00  0.0000000000000000e+00  0.0000000000000000e+00  0.0000000000000000e+00  0.0000000000000000e+00  0.0000000000000000e+00  0.0000000000000000e+00  0.0000000000000000e+00  0.0000000000000000e+00  0.0000000000000000e+00  0.0000000000000000e+00  0.0000000000000000e+00  0.0000000000000000e+00  0.0000000000000000e+00  0.0000000000000000e+00  0.0000000000000000e+00  0.0000000000000000e+00  0.0000000000000000e+00  0.0000000000000000e+00  0.0000000000000000e+00  0.0000000000000000e+00  0.0000000000000000e+00  0.0000000000000000e+00  0.0000000000000000e+00  0.0000000000000000e+00  0.0000000000000000e+00  0.0000000000000000e+00  0.0000000000000000e+00  0.0000000000000000e+00  0.0000000000000000e+00  0.0000000000000000e+00  0.0000000000000000e+00  0.0000000000000000e+00  0.0000000000000000e+00  0.0000000000000000e+00  0.0000000000000000e+00  0.0000000000000000e+00  0.0000000000000000e+00  0.0000000000000000e+00  0.0000000000000000e+00  0.0000000000000000e+00  0.0000000000000000e+00  0.0000000000000000e+00  0.0000000000000000e+00  0.0000000000000000e+00  0.0000000000000000e+00  0.0000000000000000e+00  0.0000000000000000e+00  0.0000000000000000e+00  0.0000000000000000e+00  0.0000000000000000e+00  0.0000000000000000e+00  0.0000000000000000e+00  0.0000000000000000e+00  0.0000000000000000e+00  0.0000000000000000e+00  0.0000000000000000e+00  0.0000000000000000e+00  0.0000000000000000e+00  0.0000000000000000e+00  0.0000000000000000e+00  0.0000000000000000e+00  8.1945851082633159e-01  3.1702887890147940e-10  3.5496131404449027e-10  3.2757344020665439e-10  3.5063598495623381e-10  3.1068786527983752e-10  9.1647112834503991e-13  9.0860771048728432e-16  4.0097935489627039e-16  3.3983855332345721e-17  4.7437371543796569e-17  2.3506897926373442e-03  1.3004631978221079e-18  1.6619250717702785e-18  5.3815860259748046e-03  9.2778712323528471e-03  4.8019279119761965e-20  7.8967448665404057e-20  4.0720785886309023e-20  2.5261906271590511e-20  2.0117700206635743e-20  1.4105195548419686e-20  1.7100731586781240e-20  1.3735275965253165e-06  1.6523109200573323e-06  5.4535727884062302e-02  1.4917597429674765e-19  6.2629680940781133e-22  1.6416239321569394e-21  2.8074614939516064e-09  1.0238302943868003e-21  1.7893952947630670e-02  1.3689187483538759e-01  6.9922690030625475e-10  3.1655552218254221e-22  2.5977755241219076e-23  2.1600352849494600e-23  1.7164138620903575e-23  1.9634822585451183e-23  4.9437332798913486e-12  2.0080438825370624e-12  1.0316076296703010e-12  5.3326115605363200e-13  2.1132373908813762e-01  6.5152389733045110e-24  6.5541636037201150e-24  3.8290377385297520e-24  3.8995836435623222e-24  9.3654937272715751e-14  1.5163372825275363e-13  7.7273420705007672e-18  4.9552597850491090e-12  4.3734816937536415e-13  5.8739713747574687e-09  1.0398659733993536e-24  2.5412053467104700e-01  3.8617986786346587e-24  1.0078443783040703e-24  4.7768324485304920e-04  6.6433330851169955e-25  9.0728783918701096e-25  4.5862919713385028e-17  7.0968686554451032e-25  9.5343978994824900e-25  4.6494987630651833e-04  5.9267517482316963e-02  2.6339819221843389e-06  4.4435628199508655e-09  5.1615478127150507e-06  3.4981083586576511e-01  5.3120759539073987e-04  1.1971687838017980e-13  2.6362609684301887e-15  7.3667061936175339e-15  8.1521090344175540e-15  5.0103634693394282e-05  3.7662565141890577e-25  3.3560259789666380e-07  5.6924479913730384e-05  1.6798025320051861e-16  1.3831972174203018e-25  1.0263514079147289e-06  2.1797581326357529e-25  2.1733873824865266e-25  9.4219476446141602e-26  4.0272124088125721e-01  1.4456271942596938e-25  5.2638124834509597e-26  8.3527159481419002e-26  5.9504577129399990e-06  1.8894494371592591e-17  7.3304111663373126e-26  3.4676738233871612e-15  5.4094578245388046e-26  2.0475067851609723e-17  2.3338125337558707e-01  1.5159437555190684e-25  3.8476989422002704e-26  5.9714866589831663e-18  1.0000998892872407e-18  2.6265968900635531e-16  4.9132710090504889e-18  3.6335403106132836e-26  1.9273261662444279e-08  8.4491077081195088e-12  1.2659240383533219e-11  6.6121816097280194e-08  1.0318628363262785e-18  3.6913112873665616e-18  1.6028597929730274e-26  1.2198207234319733e-07  8.7235443837095696e-27  1.5609361884956497e-26  6.9431044376571212e-14  2.3063624809405786e-14  5.0270317155920709e-19  8.3173583484040484e-27  2.0441689926876918e-26  2.0950678657318058e-26  3.5253994211063600e-01  2.3413592687490089e-08  3.2134133921505128e-21  7.7069667853448213e-03  8.7686504604084506e-25  1.2154437546892334e-19  3.9350629527396179e-17  1.6115585447232722e-26  7.4493511452672733e-27  4.5182971617037416e-20  7.2704813874040158e-20  5.1231272449282353e-17  1.2457746970838144e-19  2.0811384896726030e-15  4.1367347599083407e-09  1.1112328311614387e-13  1.1045549574107320e-18  1.7147436757733454e-26  1.3288846068484602e-02  7.2436890618652821e-06  9.7572375396072161e-04  5.4995349024191809e-01  1.4059290221829238e-02  7.7828340964307143e-22  1.4387337743917864e-07  5.6162350200468290e-14  5.9921419298399812e-22  1.5007795361022310e-21  3.6360875124663221e-03  2.0433845578028248e-01  5.1613706287021832e-16  1.4113501906593316e-27  3.5112670176914118e-14  4.9488215293188863e-06  7.2350098351165768e-21  6.2146552322551200e-21  9.9295914237738460e-25  1.4856540423138280e-27  2.0654915827827245e-21  1.5873447853053027e-27  1.1689488608084445e-27  8.3212341254903405e-28  6.5153232755720431e-22  1.4848060194387679e-16  2.0564310955410050e-27  5.9305781102994791e-23  1.2292663482015926e-10  5.3758890306488319e-21  4.3464382506924204e-26  7.8165875429979601e-28  8.1479016905190737e-22  1.5406593363773451e-13  5.8659465841077352e-01  1.6303560387882108e-21  2.1847493464750632e-06  8.6062788240788414e-28  8.3572803594853521e-09  7.1085430294081020e-28  2.1055383322361669e-20  8.2474354705277235e-28  1.2820899568373952e-09  4.9034981098473142e-22  2.7917668890584162e-11  9.6561772423776322e-14  7.4643461180718337e-02  1.7146687659179916e-27  4.0578867141054892e-12  5.1424534034354288e-16  9.1262943953488375e-10  1.0365764784060327e-27  1.6023984411687062e-23  1.1508493661150315e-27  2.0828924866907644e-01  5.7628803035177956e-28  7.1881739241257757e-28  2.3802732977523753e-11  2.1613333134319293e-04  8.0805080981786747e-21  2.6131979345634231e-22  1.0056583785032354e-10  9.6711460709926996e-17  2.3446217542021532e-14  2.6688106811286048e-13  4.8015262081999327e-10  3.1495202283511620e-16  2.4625797435850359e-14  1.7236788134911747e-22  1.6452514675650814e-22  3.5971210262555210e-02  1.6261415558253521e-25  1.9633755347172740e-22  2.2688586284876810e-20  1.7324341652487527e-01  6.0956235336393294e-01  4.9552177703851709e-28  3.7354129091383547e-28  1.2998096877604062e-21  1.9005948532164726e-09  8.0208227640203795e-28  4.6549269842865751e-16  5.8219603119740218e-17  2.0421592491565946e-24  8.8688143741310180e-18  2.4925528557363834e-07  1.6860071925691846e-15  8.2571079602662158e-17  7.2514711149558887e-28  8.8803352618173938e-19  2.8262010128386990e-28  7.3191580924382376e-17  2.9425141241166112e-28  5.1166656342912999e-27  9.4409218936250109e-28  2.4301878271745893e-28  5.6221781701913900e-24  4.1966060292251712e-28  8.3192291918205107e-09  3.1611881182717363e-14  2.5481128739766434e-23  5.0013842598043593e-23  2.1880191284582289e-02  1.1390344254117652e-03  4.8076250363775346e-16  4.3728827510101944e-15  7.0250086456238128e-27  1.7708471493866178e-10  2.2108049538345927e-28  2.5802081176836601e-28  2.5440745817093863e-28  8.7030413551898613e-06  1.3550859653782764e-09  1.8712645042952400e-12  2.8475704740892697e-12  7.7311673483886753e-03  6.0693838881465756e-01  1.3332603964248824e-23  1.2562363128932277e-06  1.5152032720252660e-21  7.0755262169955724e-12  2.3358072759067684e-27  2.2700780510266881e-28  2.1493865899746885e-27  1.2784676690032859e-18  4.3435858153783842e-23  1.2380123725484578e-13  2.6857655824928259e-09  6.8827424129770073e-07  7.6552220495507268e-24  1.0415255151508439e-26  2.9698650487848546e-27  9.5363404348125330e-14  1.2402879023289069e-28  6.6825364076577181e-06  4.1778659670591101e-09  1.5290465041863825e-20  2.3718917361032330e-22  1.1982162570750524e-18  9.1667401504971362e-05  3.8735428029181484e-04  3.8148637668056204e-06  2.9910306538355276e-05  8.2573649001300205e-04  6.0955458065489243e-02  9.6612551093286578e-02  9.4794885715395513e-17  2.1749684817524023e-18  2.9991367426394263e-20  1.0333879168113688e-03  2.1422608126025452e-28  6.0519037094418636e-23  2.9283153673433375e-07  8.6169743463323401e-02  5.1295926685461242e-09  3.6701003648871850e-16  9.2924311692607197e-13  1.4037894450706173e-01  1.4511821413965874e-28  4.0815287809942346e-12  2.2045878170996802e-28  1.4564484994697265e-28  1.6329264316993227e-28  2.3902026272587937e-01  6.4451019453285918e-01  3.5270718869075661e-04  3.4627882442321359e-02  8.3162348589164737e-18  2.3001822227653005e-15  1.7446597013882462e-19  5.1730781591276867e-14  8.6521094690885100e-17  4.8546385217869419e-16  5.1884030892843705e-12  1.1735986903293862e-16  9.2163079926647592e-04  1.2153451816140360e-20  9.6864764467308836e-02  5.2398491936649305e-02  1.8588915243277122e-13  1.9772569025549393e-19  3.5889278620144962e-18  1.9366114247671121e-28  4.3849292732366236e-22  9.1300539871678152e-22  6.5164516121651956e-29  3.7893836807510923e-05  1.1149875667751855e-28  9.1086074529413507e-29  5.7451115187322176e-24  2.5649045309140125e-07  6.5945944034501290e-06  5.2306539814049252e-03  1.0122940059049456e-28  1.4829202041860965e-19  9.9242631757081854e-17  5.3596059247114276e-11  7.3009165997568330e-05  3.3763865790438359e-20  2.4640915028241256e-10  4.1290685271668335e-05  5.5748605380117423e-02  7.5257070997290771e-18  1.6820437957200964e-22  3.5459344088445830e-10  2.3062001808439312e-24  1.2497813234471019e-24  9.3730066913751072e-18  1.1369333795981384e-28  1.2020071921832110e-22  9.9866840690945635e-22  7.3165174618172556e-29  6.6301027946123780e-18  1.0551478160284718e-17  7.5822648518112796e-29  2.3161079796093366e-24  3.4467103376710772e-29  2.0264898370551125e-23  1.7126040414394999e-24  1.2945713870203881e-12  6.8380056464017902e-01  7.8945613607305693e-25  2.4747662617537186e-01  1.5033967115586805e-01  5.7915461010936755e-21  8.4917759757777901e-29  2.7883298042791551e-14  1.3075623028355627e-24  2.7666661387641255e-04  1.4515702873742219e-24  9.4713334953419740e-19  4.9564990873567666e-01  5.5959871342165330e-23  5.9845328945540981e-29  8.8504295326950750e-28  9.5477507953753979e-23  7.0962785390379186e-06  2.1885539942278897e-08  1.1613966964991617e-18  8.0321274764900494e-28  3.1480804376524940e-01  1.2952938604262787e-14  5.2363252856351560e-29  2.0498549476676398e-11  5.2780254552807571e-29  1.7845767895387080e-23  2.1441382388652175e-10  1.7965793709421720e-28  6.3268341816203014e-02  6.2533185834047838e-29  8.8861475303275978e-23  5.6467981073857366e-29  1.8934888521859786e-07  1.3086068488499716e-13  7.9294980816939549e-18  2.2237411312147557e-13  3.9024196064602423e-29  1.7833729400231558e-23  2.2277789148029154e-07  1.0343386647349477e-27  6.6410581026081045e-15  1.7083430392406699e-20  4.8424981591274489e-29  4.1464834218452265e-29  3.3499230524429993e-12  2.6388571654765120e-25  3.8410109951641603e-09  3.7547046461411646e-20  5.1777890059905043e-12  9.3006318492882963e-14  4.1227843555579434e-29  6.9589462912157376e-24  4.6230413266754411e-23  4.4217746840025887e-25  5.2523821388990405e-25  2.3220497652152356e-08  5.2128110417038531e-06  1.0030034531471232e-01  2.5414044249640191e-06  4.4910117019506259e-23  6.0387037195876580e-03  5.6938927117885106e-10  1.2416440559142811e-23  2.2046714960871050e-29  1.3201396417058396e-27  2.2624195727993335e-15  6.1535882200594745e-17  5.6016932098814772e-20  2.3329842559858791e-06  1.4761865549512940e-19  3.6940830385546847e-29  2.6867678927070899e-29  3.2070838401269544e-28  5.4938888703611042e-17  1.3560081349057486e-24  1.0061372525393559e-20  6.4049606410827476e-25  4.0787930288575676e-24  4.3081127326236383e-24  1.6802293899718996e-15  3.2291748829845613e-23  3.1169202010230315e-10  3.1569565516293566e-14  1.0505791775115977e-12  1.4472871885953752e-14  2.8240699096352939e-11  1.1694365978415543e-07  2.9962136325508000e-25  4.9780535667845981e-08  2.3456180978190861e-21  4.4579418965527295e-01  3.1648615223469611e-16  2.0750348238843658e-10  7.3207399099717101e-12  5.9485293269103495e-07  2.2706006109360260e-25  2.8253843069870011e-29  3.2058730276162738e-29  1.0934297265296862e-02  5.1641647944327196e-18  5.7229965235073768e-11  2.7874043524587927e-10  2.1278015545165409e-26  2.5968873274983804e-14  3.6220631561702695e-29  7.2082257899152596e-02  3.3485075015550079e-04  1.0899945022579519e-09  8.2456148506652074e-21  4.7861121390437251e-24  3.6975205912682495e-25  7.6503439641390342e-20  1.6891095952178150e-19  1.6709026784347942e-13  1.1866963966600751e-25  1.2215291032018986e-09  5.1782079373478179e-11  4.4308110180833482e-23  7.7575341077123119e-02  1.8065370185724865e-19  6.1026122469023097e-11  1.8276632617393258e-18  1.2932327602586955e-15  6.8782517545398559e-17  4.8971658252983393e-21  1.9810514586034875e-29  2.0948860163499848e-24  2.0539676523216698e-29  1.0951065316824224e-25  1.8508080488372472e-27  2.8968344919037743e-05  3.4632505078386658e-22  6.9358480302200574e-14  3.8283707947581446e-21  6.1390475918669672e-08  1.6235093412122723e-13  1.7747720269218164e-04  1.7808979140554350e-27  4.3782090933705160e-08  3.6151682273870635e-28  1.5437439871260187e-29  5.7601562837004182e-29  1.0644127380985631e-11  6.3917898110661114e-26  2.0595395082054341e-29  7.7514330461519614e-12  3.2827028714462384e-12  5.7733832546552431e-16  3.6259455155982212e-21  7.6309126819516400e-26  2.4559907914869893e-21  5.0605982994649342e-20  2.1544879957246004e-16  2.5721462576766663e-14  1.8125723096574575e-16  4.9490563385964447e-12  1.6498704269701643e-04  1.1614862668126621e-19  2.6