<?xml version="1.0"?>
<VTKFile type="UnstructuredGrid"  version="0.1"  >
<UnstructuredGrid>
<Piece  NumberOfPoints="20054" NumberOfCells="39478">
<Points>
<DataArray  type="Float64"  NumberOfComponents="3"  format="ascii">1 0 0  0.9997998037428526 0.02000880895389431 0  0.9991992951284931 0.04000960653046352 0  0.9981987145960756 0.05999438456007805 0  0.9967984627705549 0.07995514128721501 0  0.9949991003022806 0.09988388457430118 0  0.9928013476425149 0.1197726351017051 0  0.9902060847549715 0.139613429562597 0  0.987214350763483 0.1593983238513969 0  0.9838273435359444 0.1791193962445356 0  0.9800464192046954 0.198768750572253 0  0.9758730916235354 0.2183385193801655 0  0.9713090317615876 0.237820867079336 0  0.9663560670342555 0.2572079930835849 0  0.9610161805715396 0.2764921349327862 0  0.9552915104240066 0.2956655714008991 0  0.9491843487067304 0.3147206255874884 0  0.9426971406815462 0.3336496679914983 0  0.9358324837779861 0.3524451195660473 0  0.9285931265532873 0.3710994547530225 0  0.9209819675918909 0.3896052044962556 0  0.9130020543448703 0.4079549592320781 0  0.9046565819097542 0.4261413718560547 0  0.8959488917512338 0.4441571606647087 0  0.8868824703632656 0.4619951122710622 0  0.8774609478731046 0.4796480844928215 0  0.8676880965878291 0.4971090092120542 0  0.8575678294839372 0.5143708952052096 0  0.8471041986406199 0.5314268309423539 0  0.8363013936173391 0.5482699873544935 0  0.8251637397763597 0.5648936205678837 0  0.8136956965509062 0.5812910746042258 0  0.8019018556596399 0.5974557840456699 0  0.7897869392681683 0.6133812766635599 0  0.777355798098326 0.6290611760098652 0  0.7646134094859813 0.6444892039702628 0  0.7515648753881492 0.6596591832778468 0  0.7382154203402046 0.6745650399864606 0  0.7245703893640189 0.6892008059026586 0  0.7106352458278521 0.7035606209753273 0  0.6964155692588616 0.7176387356420051 0  0.6819170531091018 0.7314295131309636 0  0.6671455024759069 0.7449274317181303 0  0.6521068317775753 0.7581270869379442 0  0.6368070623852795 0.7710231937472638 0  0.6212523202121545 0.7836105886414595 0  0.6054488332605282 0.795884231721841 0  0.5894029291282759 0.8078392087135958 0  0.5731210324752972 0.8194707329334278 0  0.5566096624511305 0.8307741472061095 0  0.5398754300847343 0.8417449257291802 0  0.5229250356374803 0.8523786758850435 0  0.5057652659204196 0.8626711399997378 0  0.4884029915768944 0.8726181970476778 0  0.4708451643315825 0.8822158643016828 0  0.45309881420708 0.8914602989276292 0  0.4351710467091336 0.9003477995230937 0  0.4170690399816468 0.9088748075993677 0  0.398800041932607 0.9170379090062476 0  0.3803713673320772 0.9248338352990368 0  0.3617903948834157 0.9322594650472057 0  0.3430645642688987 0.9393118250841893 0  0.3242013731709288 0.9459880916978206 0  0.3052083742700172 0.952285591760924 0  0.2860931722207478 0.9582018038016155 0  0.2668634206069304 0.963734359012881 0  0.2475268188771628 0.9688810422010291 0  0.2280911092620296 0.9736397926726377 0  0.2085640736741707 0.9780087050596407 0  0.1889535305924618 0.9819860300822225 0  0.1692673319315541 0.9855701752492174 0  0.1495133598980264 0.9887597054957302 0  0.1296995238344084 0.9915533437577263 0  0.1098337570523395 0.9939499714833577 0  0.08992401365612977 0.9959486290808237 0  0.06997826535799723 0.9975485163025836 0  0.05000449828625179 0.9987489925657699 0  0.03001070978771124 0.9995495772086734 0  0.01000490522562346 0.9999499496831961 0  -0.01000490522562333 0.9999499496831961 0  -0.03001070978771133 0.9995495772086734 0  -0.05000449828625144 0.9987489925657699 0  -0.06997826535799688 0.9975485163025836 0  -0.08992401365612987 0.9959486290808237 0  -0.1098337570523394 0.9939499714833577 0  -0.1296995238344082 0.9915533437577263 0  -0.1495133598980262 0.9887597054957303 0  -0.1692673319315537 0.9855701752492174 0  -0.1889535305924614 0.9819860300822226 0  -0.2085640736741705 0.9780087050596407 0  -0.2280911092620295 0.9736397926726377 0  -0.2475268188771627 0.9688810422010291 0  -0.2668634206069302 0.9637343590128811 0  -0.2860931722207475 0.9582018038016156 0  -0.3052083742700173 0.9522855917609239 0  -0.3242013731709289 0.9459880916978205 0  -0.3430645642688986 0.9393118250841894 0  -0.3617903948834154 0.9322594650472058 0  -0.380371367332077 0.924833835299037 0  -0.3988000419326071 0.9170379090062476 0  -0.4170690399816465 0.9088748075993678 0  -0.4351710467091335 0.9003477995230939 0  -0.4530988142070799 0.8914602989276292 0  -0.4708451643315824 0.8822158643016829 0  -0.4884029915768945 0.8726181970476778 0  -0.5057652659204197 0.8626711399997378 0  -0.5229250356374801 0.8523786758850437 0  -0.5398754300847342 0.8417449257291804 0  -0.5566096624511303 0.8307741472061098 0  -0.5731210324752971 0.8194707329334279 0  -0.589402929128276 0.8078392087135957 0  -0.6054488332605281 0.7958842317218411 0  -0.6212523202121542 0.7836105886414597 0  -0.6368070623852793 0.7710231937472639 0  -0.652106831777575 0.7581270869379444 0  -0.6671455024759069 0.7449274317181304 0  -0.6819170531091018 0.7314295131309636 0  -0.6964155692588616 0.7176387356420052 0  -0.7106352458278521 0.7035606209753273 0  -0.7245703893640187 0.6892008059026588 0  -0.7382154203402043 0.6745650399864608 0  -0.751564875388149 0.6596591832778469 0  -0.7646134094859813 0.6444892039702628 0  -0.7773557980983258 0.6290611760098654 0  -0.7897869392681683 0.6133812766635599 0  -0.8019018556596398 0.59745578404567 0  -0.8136956965509062 0.5812910746042258 0  -0.8251637397763595 0.5648936205678839 0  -0.836301393617339 0.5482699873544935 0  -0.8471041986406197 0.5314268309423542 0  -0.8575678294839372 0.5143708952052097 0  -0.8676880965878292 0.497109009212054 0  -0.8774609478731045 0.4796480844928216 0  -0.8868824703632656 0.4619951122710621 0  -0.8959488917512338 0.4441571606647088 0  -0.904656581909754 0.426141371856055 0  -0.9130020543448703 0.4079549592320783 0  -0.920981967591891 0.3896052044962555 0  -0.9285931265532872 0.3710994547530226 0  -0.9358324837779861 0.3524451195660473 0  -0.9426971406815462 0.3336496679914984 0  -0.9491843487067303 0.3147206255874888 0  -0.9552915104240065 0.2956655714008993 0  -0.9610161805715396 0.2764921349327862 0  -0.9663560670342555 0.2572079930835851 0  -0.9713090317615876 0.2378208670793361 0  -0.9758730916235353 0.2183385193801658 0  -0.9800464192046954 0.198768750572253 0  -0.9838273435359444 0.1791193962445354 0  -0.987214350763483 0.159398323851397 0  -0.9902060847549714 0.1396134295625972 0  -0.9928013476425149 0.1197726351017052 0  -0.9949991003022804 0.09988388457430147 0  -0.9967984627705549 0.07995514128721509 0  -0.9981987145960756 0.05999438456007793 0  -0.9991992951284931 0.04000960653046362 0  -0.9997998037428526 0.02000880895389464 0  -1 1.224646799147353e-16 0  -0.9997998037428526 -0.0200088089538944 0  -0.9991992951284931 -0.04000960653046338 0  -0.9981987145960756 -0.05999438456007812 0  -0.9967984627705549 -0.07995514128721484 0  -0.9949991003022806 -0.09988388457430078 0  -0.9928013476425149 -0.1197726351017049 0  -0.9902060847549715 -0.1396134295625965 0  -0.9872143507634831 -0.1593983238513963 0  -0.9838273435359444 -0.1791193962445356 0  -0.9800464192046953 -0.1987687505722532 0  -0.9758730916235354 -0.2183385193801655 0  -0.9713090317615876 -0.2378208670793363 0  -0.9663560670342556 -0.2572079930835848 0  -0.9610161805715396 -0.276492134932786 0  -0.9552915104240066 -0.2956655714008991 0  -0.9491843487067305 -0.3147206255874881 0  -0.9426971406815464 -0.3336496679914978 0  -0.9358324837779862 -0.3524451195660471 0  -0.9285931265532875 -0.371099454753022 0  -0.9209819675918909 -0.3896052044962557 0  -0.9130020543448704 -0.407954959232078 0  -0.9046565819097541 -0.4261413718560548 0  -0.8959488917512338 -0.4441571606647086 0  -0.8868824703632655 -0.4619951122710623 0  -0.8774609478731046 -0.4796480844928214 0  -0.8676880965878293 -0.4971090092120538 0  -0.8575678294839373 -0.5143708952052095 0  -0.84710419864062 -0.5314268309423537 0  -0.8363013936173395 -0.5482699873544929 0  -0.8251637397763596 -0.5648936205678838 0  -0.8136956965509061 -0.5812910746042259 0  -0.8019018556596399 -0.5974557840456699 0  -0.7897869392681682 -0.61338127666356 0  -0.777355798098326 -0.6290611760098652 0  -0.7646134094859816 -0.6444892039702625 0  -0.7515648753881492 -0.6596591832778468 0  -0.7382154203402048 -0.6745650399864603 0  -0.7245703893640192 -0.6892008059026583 0  -0.7106352458278522 -0.7035606209753272 0  -0.6964155692588621 -0.7176387356420046 0  -0.6819170531091017 -0.7314295131309637 0  -0.667145502475907 -0.7449274317181303 0  -0.6521068317775756 -0.758127086937944 0  -0.6368070623852792 -0.7710231937472641 0  -0.6212523202121544 -0.7836105886414596 0  -0.6054488332605283 -0.795884231721841 0  -0.5894029291282762 -0.8078392087135956 0  -0.5731210324752977 -0.8194707329334274 0  -0.5566096624511304 -0.8307741472061095 0  -0.5398754300847344 -0.8417449257291802 0  -0.5229250356374798 -0.8523786758850437 0  -0.5057652659204195 -0.8626711399997379 0  -0.4884029915768943 -0.872618197047678 0  -0.4708451643315825 -0.8822158643016828 0  -0.4530988142070805 -0.8914602989276289 0  -0.4351710467091333 -0.900347799523094 0  -0.4170690399816467 -0.9088748075993677 0  -0.3988000419326073 -0.9170379090062475 0  -0.3803713673320777 -0.9248338352990366 0  -0.3617903948834162 -0.9322594650472055 0  -0.3430645642688988 -0.9393118250841893 0  -0.3242013731709283 -0.9459880916978207 0  -0.3052083742700169 -0.9522855917609241 0  -0.2860931722207477 -0.9582018038016155 0  -0.2668634206069305 -0.963734359012881 0  -0.2475268188771631 -0.968881042201029 0  -0.2280911092620301 -0.9736397926726376 0  -0.2085640736741706 -0.9780087050596407 0  -0.1889535305924619 -0.9819860300822225 0  -0.1692673319315544 -0.9855701752492173 0  -0.1495133598980269 -0.9887597054957302 0  -0.1296995238344092 -0.9915533437577262 0  -0.1098337570523396 -0.9939499714833577 0  -0.08992401365612945 -0.9959486290808237 0  -0.06997826535799691 -0.9975485163025836 0  -0.05000449828625168 -0.9987489925657699 0  -0.030010709787
[...]
<PointData  Scalars="Displacement"> 
<DataArray  type="Float64"  Name="Displacement"  format="ascii">0.0000000000000000e+00  0.0000000000000000e+00  0.0000000000000000e+00  0.0000000000000000e+00  0.0000000000000000e+00  0.0000000000000000e+00  0.0000000000000000e+00  0.0000000000000000e+00  0.0000000000000000e+00  0.0000000000000000e+00  0.0000000000000000e+00  0.0000000000000000e+00  0.0000000000000000e+00  0.0000000000000000e+00  0.0000000000000000e+00  0.0000000000000000e+00  0.0000000000000000e+00  0.0000000000000000e+00  0.0000000000000000e+00  0.0000000000000000e+00  0.0000000000000000e+00  0.0000000000000000e+00  0.0000000000000000e+00  0.0000000000000000e+00  0.0000000000000000e+00  0.0000000000000000e+00  0.0000000000000000e+00  0.0000000000000000e+00  0.0000000000000000e+00  0.0000000000000000e+00  0.0000000000000000e+00  0.0000000000000000e+00  0.0000000000000000e+00  0.0000000000000000e+00  0.0000000000000000e+00  0.0000000000000000e+00  0.0000000000000000e+00  0.0000000000000000e+00  0.0000000000000000e+00  0.0000000000000000e+00  0.0000000000000000e+00  0.0000000000000000e+00  0.0000000000000000e+00  0.0000000000000000e+00  0.0000000000000000e+00  0.0000000000000000e+00  0.0000000000000000e+00  0.0000000000000000e+00  0.0000000000000000e+00  0.0000000000000000e+00  0.0000000000000000e+00  0.0000000000000000e+00  0.0000000000000000e+00  0.0000000000000000e+00  0.0000000000000000e+00  0.0000000000000000e+00  0.0000000000000000e+00  0.0000000000000000e+00  0.0000000000000000e+00  0.0000000000000000e+00  0.0000000000000000e+00  0.0000000000000000e+00  0.0000000000000000e+00  0.0000000000000000e+00  0.0000000000000000e+00  0.0000000000000000e+00  0.0000000000000000e+00  0.0000000000000000e+00  0.0000000000000000e+00  0.0000000000000000e+00  0.0000000000000000e+00  0.0000000000000000e+00  0.0000000000000000e+00  0.0000000000000000e+00  0.0000000000000000e+00  0.0000000000000000e+00  0.0000000000000000e+00  0.0000000000000000e+00  0.0000000000000000e+00  0.0000000000000000e+00  0.0000000000000000e+00  0.0000000000000000e+00  0.0000000000000000e+00  0.0000000000000000e+00  0.0000000000000000e+00  0.0000000000000000e+00  0.0000000000000000e+00  0.0000000000000000e+00  0.0000000000000000e+00  0.0000000000000000e+00  0.0000000000000000e+00  0.0000000000000000e+00  0.0000000000000000e+00  0.0000000000000000e+00  0.0000000000000000e+00  0.0000000000000000e+00  0.0000000000000000e+00  0.0000000000000000e+00  0.0000000000000000e+00  0.0000000000000000e+00  0.0000000000000000e+00  0.0000000000000000e+00  0.0000000000000000e+00  0.0000000000000000e+00  0.0000000000000000e+00  0.0000000000000000e+00  0.0000000000000000e+00  0.0000000000000000e+00  0.0000000000000000e+00  0.0000000000000000e+00  0.0000000000000000e+00  0.0000000000000000e+00  0.0000000000000000e+00  0.0000000000000000e+00  0.0000000000000000e+00  0.0000000000000000e+00  0.0000000000000000e+00  0.0000000000000000e+00  0.0000000000000000e+00  0.0000000000000000e+00  0.0000000000000000e+00  0.0000000000000000e+00  0.0000000000000000e+00  0.0000000000000000e+00  0.0000000000000000e+00  0.0000000000000000e+00  0.0000000000000000e+00  0.0000000000000000e+00  0.0000000000000000e+00  0.0000000000000000e+00  0.0000000000000000e+00  0.0000000000000000e+00  0.0000000000000000e+00  0.0000000000000000e+00  0.0000000000000000e+00  0.0000000000000000e+00  0.0000000000000000e+00  0.0000000000000000e+00  0.0000000000000000e+00  0.0000000000000000e+00  0.0000000000000000e+00  0.0000000000000000e+00  0.0000000000000000e+00  0.0000000000000000e+00  0.0000000000000000e+00  0.0000000000000000e+00  0.0000000000000000e+00  0.0000000000000000e+00  0.0000000000000000e+00  0.0000000000000000e+00  0.0000000000000000e+00  0.0000000000000000e+00  0.0000000000000000e+00  0.0000000000000000e+00  0.0000000000000000e+00  0.0000000000000000e+00  0.0000000000000000e+00  0.0000000000000000e+00  0.0000000000000000e+00  0.0000000000000000e+00  0.0000000000000000e+00  0.0000000000000000e+00  0.0000000000000000e+00  0.0000000000000000e+00  0.0000000000000000e+00  0.0000000000000000e+00  0.0000000000000000e+00  0.0000000000000000e+00  0.0000000000000000e+00  0.0000000000000000e+00  0.0000000000000000e+00  0.0000000000000000e+00  0.0000000000000000e+00  0.0000000000000000e+00  0.0000000000000000e+00  0.0000000000000000e+00  0.0000000000000000e+00  0.0000000000000000e+00  0.0000000000000000e+00  0.0000000000000000e+00  0.0000000000000000e+00  0.0000000000000000e+00  0.0000000000000000e+00  0.0000000000000000e+00  0.0000000000000000e+00  0.0000000000000000e+00  0.0000000000000000e+00  0.0000000000000000e+00  0.0000000000000000e+00  0.0000000000000000e+00  0.0000000000000000e+00  0.0000000000000000e+00  0.0000000000000000e+00  0.0000000000000000e+00  0.0000000000000000e+00  0.0000000000000000e+00  0.0000000000000000e+00  0.0000000000000000e+00  0.0000000000000000e+00  0.0000000000000000e+00  0.0000000000000000e+00  0.0000000000000000e+00  0.0000000000000000e+00  0.0000000000000000e+00  0.0000000000000000e+00  0.0000000000000000e+00  0.0000000000000000e+00  0.0000000000000000e+00  0.0000000000000000e+00  0.0000000000000000e+00  0.0000000000000000e+00  0.0000000000000000e+00  0.0000000000000000e+00  0.0000000000000000e+00  0.0000000000000000e+00  0.0000000000000000e+00  0.0000000000000000e+00  0.0000000000000000e+00  0.0000000000000000e+00  0.0000000000000000e+00  0.0000000000000000e+00  0.0000000000000000e+00  0.0000000000000000e+00  0.0000000000000000e+00  0.0000000000000000e+00  0.0000000000000000e+00  0.0000000000000000e+00  0.0000000000000000e+00  0.0000000000000000e+00  0.0000000000000000e+00  0.0000000000000000e+00  0.0000000000000000e+00  0.0000000000000000e+00  0.0000000000000000e+00  0.0000000000000000e+00  0.0000000000000000e+00  0.0000000000000000e+00  0.0000000000000000e+00  0.0000000000000000e+00  0.0000000000000000e+00  0.0000000000000000e+00  0.0000000000000000e+00  0.0000000000000000e+00  0.0000000000000000e+00  0.0000000000000000e+00  0.0000000000000000e+00  0.0000000000000000e+00  0.0000000000000000e+00  0.0000000000000000e+00  0.0000000000000000e+00  0.0000000000000000e+00  0.0000000000000000e+00  0.0000000000000000e+00  0.0000000000000000e+00  0.0000000000000000e+00  0.0000000000000000e+00  0.0000000000000000e+00  0.0000000000000000e+00  0.0000000000000000e+00  0.0000000000000000e+00  0.0000000000000000e+00  0.0000000000000000e+00  0.0000000000000000e+00  0.0000000000000000e+00  0.0000000000000000e+00  0.0000000000000000e+00  0.0000000000000000e+00  0.0000000000000000e+00  0.0000000000000000e+00  0.0000000000000000e+00  0.0000000000000000e+00  0.0000000000000000e+00  0.0000000000000000e+00  0.0000000000000000e+00  0.0000000000000000e+00  0.0000000000000000e+00  0.0000000000000000e+00  0.0000000000000000e+00  0.0000000000000000e+00  0.0000000000000000e+00  0.0000000000000000e+00  0.0000000000000000e+00  0.0000000000000000e+00  0.0000000000000000e+00  0.0000000000000000e+00  0.0000000000000000e+00  0.0000000000000000e+00  0.0000000000000000e+00  0.0000000000000000e+00  0.0000000000000000e+00  0.0000000000000000e+00  0.0000000000000000e+00  0.0000000000000000e+00  0.0000000000000000e+00  0.0000000000000000e+00  0.0000000000000000e+00  0.0000000000000000e+00  0.0000000000000000e+00  0.0000000000000000e+00  0.0000000000000000e+00  0.0000000000000000e+00  0.0000000000000000e+00  0.0000000000000000e+00  0.0000000000000000e+00  0.0000000000000000e+00  0.0000000000000000e+00  0.0000000000000000e+00  0.0000000000000000e+00  0.0000000000000000e+00  0.0000000000000000e+00  0.0000000000000000e+00  0.0000000000000000e+00  0.0000000000000000e+00  0.0000000000000000e+00  9.8735142418950022e-03  2.7034544168899412e-02  2.6907941487225664e-02  2.7287448962947315e-02  2.6933520057774003e-02  2.7175181547474239e-02  4.2837557563679664e-02  7.9681846117652000e-02  8.4466431356163704e-02  8.1113924491457878e-02  8.1661717980543919e-02  1.3837395310103445e-02  5.5137622997747826e-02  5.4868294763295876e-02  1.3023945231326703e-02  1.3039452335309044e-02  1.6276082700614578e-02  2.1000454052566932e-02  1.3858661513163175e-02  1.1876311433185505e-02  7.6819570382518200e-04  3.4522860196981080e-04  4.2275080130836406e-03  1.7796955647551422e-02  1.7908122995598481e-02  1.2219389591929777e-02  2.7401803810033976e-02  -4.2037756518169836e-02  -3.2415972803111141e-02  2.4448681746855078e-02  -3.4397641972546564e-02  1.2943146184924131e-02  1.1374844441198954e-02  2.5826975352950362e-02  -5.4113085572402873e-02  -8.0199298670655506e-02  -8.4621334698794765e-02  -8.7209831182513631e-02  -8.7965775565817750e-02  3.7440336976074851e-02  3.9332254387516523e-02  4.1882464385892104e-02  4.2753169159993776e-02  1.0595830941846398e-02  -9.5254799268270476e-02  -9.8930844694738077e-02  -1.0352198808163372e-01  -1.0349320209317733e-01  5.3815659177971605e-02  5.0405923029754725e-02  7.2837513645288246e-02  3.6371240906877669e-02  4.5138745501970737e-02  2.3042597218084850e-02  -1.1592685234076464e-01  1.0687039069639978e-02  -1.0109619994327369e-01  -1.1642392814683485e-01  1.4623380054453392e-02  -1.1885618593815822e-01  -1.1776347473100443e-01  8.3180550264288333e-02  -1.1959356429046396e-01  -1.1523127899291458e-01  1.4742653340941434e-02  1.1871091581761592e-02  1.7439678862301546e-02  2.3383150145165892e-02  1.7512939429799205e-02  1.0590701585726215e-02  1.4399782494739758e-02  5.2416239584744270e-02  7.6051605442077258e-02  7.0085763631378667e-02  6.9641531197023834e-02  1.5613329709848918e-02  -1.2141224895270139e-01  1.9133236240622811e-02  1.5545522992323270e-02  8.4819266581901281e-02  -1.2612995897019041e-01  1.8208148436906168e-02  -1.2780956926252576e-01  -1.2704549425498518e-01  -1.2953444279294166e-01  1.0174295840933835e-02  -1.2835790040663037e-01  -1.3117525479406320e-01  -1.3088625460720460e-01  1.7197473473627128e-02  7.5381045169697833e-02  -1.3251802279326658e-01  7.5105653092298497e-02  -1.3361740326620100e-01  7.5455411306923847e-02  1.0459350521105847e-02  -1.2846392501845164e-01  -1.3474520911648741e-01  6.9494264435581002e-02  5.1986632263257955e-02  8.4764080654255433e-02  6.9180621485602542e-02  -1.3464774735956817e-01  2.2036951124351809e-02  3.3941927907406619e-02  3.3821301232234632e-02  2.0552545918347282e-02  5.1692739348661983e-02  6.3201892569401591e-02  -1.3908277880522027e-01  1.9774744470109660e-02  -1.3934178816619502e-01  -1.3768940091664700e-01  5.6216408395662748e-02  6.2297870200100677e-02  4.7726025682508874e-02  -1.4008443030833884e-01  -1.3584277512816892e-01  -1.3705403991391385e-01  1.0410577073721347e-02  2.1310451334781461e-02  -1.8830125913561244e-02  1.2821079600774025e-02  -1.1754886229150203e-01  2.6764886940487963e-02  8.1511826768415202e-02  -1.3678611904367466e-01  -1.4105062183450587e-01  1.8341698811532782e-02  2.1506107080760683e-02  8.2239268984405617e-02  2.9465217041732848e-02  7.6426202391111087e-02  2.3699383974311369e-02  5.3822557513156330e-02  5.2601943180290260e-02  -1.3832913246434375e-01  1.3020698127314987e-02  1.6665197045693643e-02  1.3945744285088737e-02  9.8010661193005891e-03  1.2877564692925395e-02  -3.9969333027506958e-02  2.0081231267557599e-02  5.6483219568045570e-02  -3.8244694068276332e-02  -2.9936092693660130e-02  1.3638486726573744e-02  1.0759722232228135e-02  8.3350201441766025e-02  -1.4226973013382962e-01  5.9147402532509274e-02  1.6922559463031478e-02  -1.2082594662837494e-02  -1.2118296770879694e-02  -1.1558796092156365e-01  -1.4251764291886293e-01  -2.8841846598617823e-02  -1.4274370976543066e-01  -1.4264846324445268e-01  -1.4230272341080366e-01  -3.5306835844900061e-02  8.4977119350112901e-02  -1.4224847289981857e-01  -7.2335533270454611e-02  2.8366501155895108e-02  -1.0996107302846482e-02  -1.3542047500828128e-01  -1.4207395812855539e-01  -3.8415247623721026e-02  4.9135490934165651e-02  9.3172164830212598e-03  -3.5984540535850817e-02  1.7444902141719891e-02  -1.4178322828340101e-01  2.2529457851868336e-02  -1.4120836296460271e-01  5.4028377746452114e-03  -1.4211496776517177e-01  2.5356992204789361e-02  -4.7803360487757199e-02  3.1902518593754856e-02  5.3089160437407253e-02  1.1852447712174080e-02  -1.4251917942473460e-01  3.6295996365119813e-02  8.3945292985832615e-02  2.5736482575224671e-02  -1.4242436891888771e-01  -9.1644296502757336e-02  -1.4208841296757635e-01  1.0923495871603980e-02  -1.4111869401810856e-01  -1.4218338572900246e-01  3.1946079967390399e-02  1.5050390295072956e-02  -3.9144665296381330e-03  -5.5459106102536862e-02  2.8747650548606309e-02  8.4501791060983933e-02  6.1109941819969836e-02  4.8392327319096283e-02  2.6250779766467169e-02  8.4748666585276244e-02  6.1374418515873698e-02  -5.6419347488225226e-02  -5.9276625956842618e-02  1.2262332592759731e-02  -1.2821690571460292e-01  -5.9078988473734891e-02  1.2599574160313111e-02  1.1055019992372897e-02  9.7871608385984750e-03  -1.4105666606958722e-01  -1.4076587081176814e-01  -3.4013014658375154e-02  2.4159525327396604e-02  -1.4140251100368728e-01  8.3478737305362968e-02  8.2888589150413944e-02  -1.1217511563806304e-01  7.2158292284241865e-02  1.9056590838576460e-02  7.8369840285127168e-02  8.3801953735096482e-02  -1.4156184315894366e-01  5.2001750753503086e-02  -1.3853685093691265e-01  8.3691156075237194e-02  -1.4021227566865765e-01  -1.4102903309766007e-01  -1.4205752458466575e-01  -1.3802509437261992e-01  -1.0008226751458414e-01  -1.3999789173239341e-01  2.2858630594259827e-02  5.8833748395159265e-02  -8.0637217580886072e-02  -7.6996015247330560e-02  1.2700555167877386e-02  1.4211836410296063e-02  8.4468036952619313e-02  7.3086501824546179e-02  -1.4061253325034725e-01  2.7520410571779449e-02  -1.3843458398108310e-01  -1.3854698523473949e-01  -1.3785315653363187e-01  1.6867908070339048e-02  2.4643947454389883e-02  3.9664586130356810e-02  3.7750182350532603e-02  1.3418813196020285e-02  9.6223420936272976e-03  -9.1541397650782452e-02  1.8074876296469294e-02  -2.7981358243792494e-02  3.4883302531947005e-02  -1.4199430999372342e-01  -1.3645604378709222e-01  -1.4160801312584620e-01  5.4577180881647293e-02  -7.6950813316192648e-02  5.1580802870064946e-02  2.4179128340551005e-02  1.8770718576364833e-02  -9.9758641538791173e-02  -1.3829827663002200e-01  -1.4225085504998852e-01  5.1627717945744916e-02  -1.3515323857653985e-01  1.6728845078967425e-02  2.3494282961219876e-02  4.0941678174070934e-04  -5.7697478068487733e-02  5.7066433946321042e-02  1.5543538263490793e-02  1.4707181076901119e-02  1.7308805465467127e-02  1.6059390098466391e-02  1.4107386802019081e-02  1.2126839923377323e-02  1.1568454947028002e-02  8.3921763433293883e-02  5.8470806372494098e-02  1.5232457099662141e-02  1.4327589196399752e-02  -1.3865390924936935e-01  -7.4147596210200367e-02  1.9445107954998989e-02  1.1394137977097915e-02  2.2978505295579897e-02  8.4370112179099122e-02  4.3275735281298307e-02  1.1327959220410334e-02  -1.3293486787747022e-01  3.7694901850126319e-02  -1.3513154537536715e-01  -1.3583054515037635e-01  -1.3721634127988225e-01  1.0713355619741660e-02  9.6527782555877253e-03  1.4704590359427392e-02  1.2315128243239895e-02  7.0889651267480230e-02  7.8564895287506861e-02  3.1300034824930205e-02  5.6500436486688531e-02  8.3860613886861307e-02  8.4184293607325766e-02  3.6067697032685149e-02  8.4684855418572791e-02  1.4328850221208417e-02  -5.6038470868907042e-03  1.1557962402471263e-02  1.2041450804145509e-02  4.9241875667415336e-02  3.1894369422756301e-02  6.3346990689775562e-02  -1.3368561022690359e-01  -4.8408178657518917e-02  -3.5197251040597316e-02  -1.3124402187492246e-01  1.6247266911691184e-02  -1.3184101586605773e-01  -1.3047455493814952e-01  -1.0152016465122547e-01  1.9406659018387500e-02  1.6777928912264220e-02  1.3388121838687393e-02  -1.3123198417394319e-01  3.3581729710275225e-02  8.5239856269678005e-02  3.0129835431258536e-02  1.5171645973562362e-02  1.1821576531984263e-02  2.7840844584745252e-02  1.5629962733250360e-02  1.1675734441090496e-02  7.2021412829835915e-02  -6.2597983810248670e-02  2.7123431149932917e-02  -1.0996688284838509e-01  -1.1707277576474312e-01  7.2673754083403069e-02  -1.3198382030745204e-01  -6.6305051543208995e-02  -3.6250081775714010e-02  -1.3068702557381132e-01  6.9105908490008749e-02  7.3720557753225779e-02  -1.2946867261359365e-01  -1.1153360437058504e-01  -1.2749573570628089e-01  -8.8706356374335132e-02  -1.1010982773630393e-01  4.0279976350350813e-02  9.2515567264905476e-03  -1.1362455083710668e-01  1.0730605108002158e-02  1.1046363623890991e-02  -6.3608720079908043e-03  -1.3028219499799304e-01  6.1896735785188027e-02  -1.1436057976656813e-01  1.4658475580566856e-02  -1.1448009017721295e-01  5.0920618576415541e-02  1.0419431490351037e-02  -7.3618682787599754e-02  -1.2706323883575038e-01  -1.4194958059463528e-01  -7.0194654620392594e-02  1.7081464917264862e-02  2.1883438275979539e-02  4.9539291507008899e-02  -1.4178131743956687e-01  1.0255554712654220e-02  6.5026804215367315e-02  -1.2661834856723253e-01  3.2683831665902059e-02  -1.2532398471788347e-01  -8.8164575399145975e-02  2.7639611617638404e-02  -1.3446722576576312e-01  1.1963776439041080e-02  -1.2353889743721252e-01  -6.9024068178917083e-02  -1.2655962323839609e-01  1.9546216555919243e-02  5.1057308992117668e-02  7.1851697433598372e-02  4.9615389612191356e-02  -1.2646904241804735e-01  -8.8047101786320359e-02  1.9514077400366110e-02  -1.4170493505126378e-01  7.1809838702131645e-02  4.6827370410448682e-03  -1.2601072645321032e-01  -1.2632203362867894e-01  3.7443040618896063e-02  -1.2439956106255927e-01  2.3528898075130242e-02  1.2111032626282690e-02  3.5841130171205153e-02  5.3635816419040742e-02  -1.2408900796181177e-01  -9.8352178928224468e-02  -7.3990958702504273e-02  -1.2135572653842404e-01  -1.2060868970415385e-01  2.1671655322532457e-02  1.6977040668628637e-02  1.1384451916588061e-02  1.7541230923650643e-02  -8.0576323092294844e-02  1.3199044925932709e-02  2.6050224093754119e-02  -9.3418491514057220e-02  -1.2072931064514231e-01  -1.4228554304924135e-01  7.6361106769959122e-02  8.2930215685782141e-02  1.8087482074443932e-02  1.7474396713239485e-02  2.9564447349081122e-02  -1.2168883771158126e-01  -1.2024520208593234e-01  -1.3860565770753838e-01  8.3746815039842520e-02  -1.1213828803341175e-01  -2.8332113129267123e-03  -1.2044568772295763e-01  -1.0198939628403668e-01  -1.0344636449309265e-01  7.7128134492252531e-02  -7.7917583561054035e-02  2.7085711993665548e-02  6.1685837081672600e-02  4.2112160703584589e-02  6.4922299495577734e-02  3.1399590585793939e-02  1.9834570733691170e-02  -1.2288324422096410e-01  2.0623735044794249e-02  -2.3814026305832819e-02  1.0382966138486615e-02  8.4222633714677420e-02  2.7551265422304353e-02  3.4826317809932367e-02  1.8755874492289770e-02  -1.2526937122940657e-01  -1.2080368477325806e-01  -1.2222950699875550e-01  1.3079287524800573e-02  6.8673769189979306e-02  3.0463296007513609e-02  2.6774511401719447e-02  -1.3684925839618828e-01  6.0766179058688925e-02  -1.2018939297601666e-01  1.2134257149767095e-02  1.4490836464635184e-02  2.5659708168024407e-02  -8.0514450750237138e-03  -1.0313139011849884e-01  -1.2349304664159459e-01  2.4093266327003406e-02  3.3636703523185096e-02  5.0586657658197240e-02  -1.2903200934385031e-01  2.4918225315858852e-02  3.0084797951906495e-02  -7.5032085863545581e-02  1.1722467410805903e-02  3.7945490385368964e-02  2.9864017314464319e-02  5.5750738310151843e-02  8.0320273159804209e-02  8.4253083307054374e-02  -1.3413876132936363e-02  -1.1557717061583452e-01  -1.0952993569382323e-01  -1.1736052821900417e-01  -1.2996495597052740e-01  -1.4239410586189893e-01  1.5723782971858360e-02  -5.2254816012154481e-02  5.6009476535048140e-02  -1.5850291213146673e-02  2.0868935668996225e-02  4.8986470143448362e-02  1.4885118220572976e-02  -1.4229952902778986e-01  2.0802958092934427e-02  -1.4055176859477886e-01  -1.1463731418488794e-01  -1.2539459612558768e-01  3.3776529721936004e-02  -1.3150378227905876e-01  -1.1746419373009361e-01  3.4846207740158203e-02  3.7824175355976077e-02  8.3486253683027561e-02  -2.1889424180807800e-02  -1.301194451897