<?xml version="1.0"?>
<VTKFile type="UnstructuredGrid"  version="0.1"  >
<UnstructuredGrid>
<Piece  NumberOfPoints="20054" NumberOfCells="39478">
<Points>
<DataArray  type="Float64"  NumberOfComponents="3"  format="ascii">1 0 0  0.9997998037428526 0.02000880895389431 0  0.9991992951284931 0.04000960653046352 0  0.9981987145960756 0.05999438456007805 0  0.9967984627705549 0.07995514128721501 0  0.9949991003022806 0.09988388457430118 0  0.9928013476425149 0.1197726351017051 0  0.9902060847549715 0.139613429562597 0  0.987214350763483 0.1593983238513969 0  0.9838273435359444 0.1791193962445356 0  0.9800464192046954 0.198768750572253 0  0.9758730916235354 0.2183385193801655 0  0.9713090317615876 0.237820867079336 0  0.9663560670342555 0.2572079930835849 0  0.9610161805715396 0.2764921349327862 0  0.9552915104240066 0.2956655714008991 0  0.9491843487067304 0.3147206255874884 0  0.9426971406815462 0.3336496679914983 0  0.9358324837779861 0.3524451195660473 0  0.9285931265532873 0.3710994547530225 0  0.9209819675918909 0.3896052044962556 0  0.9130020543448703 0.4079549592320781 0  0.9046565819097542 0.4261413718560547 0  0.8959488917512338 0.4441571606647087 0  0.8868824703632656 0.4619951122710622 0  0.8774609478731046 0.4796480844928215 0  0.8676880965878291 0.4971090092120542 0  0.8575678294839372 0.5143708952052096 0  0.8471041986406199 0.5314268309423539 0  0.8363013936173391 0.5482699873544935 0  0.8251637397763597 0.5648936205678837 0  0.8136956965509062 0.5812910746042258 0  0.8019018556596399 0.5974557840456699 0  0.7897869392681683 0.6133812766635599 0  0.777355798098326 0.6290611760098652 0  0.7646134094859813 0.6444892039702628 0  0.7515648753881492 0.6596591832778468 0  0.7382154203402046 0.6745650399864606 0  0.7245703893640189 0.6892008059026586 0  0.7106352458278521 0.7035606209753273 0  0.6964155692588616 0.7176387356420051 0  0.6819170531091018 0.7314295131309636 0  0.6671455024759069 0.7449274317181303 0  0.6521068317775753 0.7581270869379442 0  0.6368070623852795 0.7710231937472638 0  0.6212523202121545 0.7836105886414595 0  0.6054488332605282 0.795884231721841 0  0.5894029291282759 0.8078392087135958 0  0.5731210324752972 0.8194707329334278 0  0.5566096624511305 0.8307741472061095 0  0.5398754300847343 0.8417449257291802 0  0.5229250356374803 0.8523786758850435 0  0.5057652659204196 0.8626711399997378 0  0.4884029915768944 0.8726181970476778 0  0.4708451643315825 0.8822158643016828 0  0.45309881420708 0.8914602989276292 0  0.4351710467091336 0.9003477995230937 0  0.4170690399816468 0.9088748075993677 0  0.398800041932607 0.9170379090062476 0  0.3803713673320772 0.9248338352990368 0  0.3617903948834157 0.9322594650472057 0  0.3430645642688987 0.9393118250841893 0  0.3242013731709288 0.9459880916978206 0  0.3052083742700172 0.952285591760924 0  0.2860931722207478 0.9582018038016155 0  0.2668634206069304 0.963734359012881 0  0.2475268188771628 0.9688810422010291 0  0.2280911092620296 0.9736397926726377 0  0.2085640736741707 0.9780087050596407 0  0.1889535305924618 0.9819860300822225 0  0.1692673319315541 0.9855701752492174 0  0.1495133598980264 0.9887597054957302 0  0.1296995238344084 0.9915533437577263 0  0.1098337570523395 0.9939499714833577 0  0.08992401365612977 0.9959486290808237 0  0.06997826535799723 0.9975485163025836 0  0.05000449828625179 0.9987489925657699 0  0.03001070978771124 0.9995495772086734 0  0.01000490522562346 0.9999499496831961 0  -0.01000490522562333 0.9999499496831961 0  -0.03001070978771133 0.9995495772086734 0  -0.05000449828625144 0.9987489925657699 0  -0.06997826535799688 0.9975485163025836 0  -0.08992401365612987 0.9959486290808237 0  -0.1098337570523394 0.9939499714833577 0  -0.1296995238344082 0.9915533437577263 0  -0.1495133598980262 0.9887597054957303 0  -0.1692673319315537 0.9855701752492174 0  -0.1889535305924614 0.9819860300822226 0  -0.2085640736741705 0.9780087050596407 0  -0.2280911092620295 0.9736397926726377 0  -0.2475268188771627 0.9688810422010291 0  -0.2668634206069302 0.9637343590128811 0  -0.2860931722207475 0.9582018038016156 0  -0.3052083742700173 0.9522855917609239 0  -0.3242013731709289 0.9459880916978205 0  -0.3430645642688986 0.9393118250841894 0  -0.3617903948834154 0.9322594650472058 0  -0.380371367332077 0.924833835299037 0  -0.3988000419326071 0.9170379090062476 0  -0.4170690399816465 0.9088748075993678 0  -0.4351710467091335 0.9003477995230939 0  -0.4530988142070799 0.8914602989276292 0  -0.4708451643315824 0.8822158643016829 0  -0.4884029915768945 0.8726181970476778 0  -0.5057652659204197 0.8626711399997378 0  -0.5229250356374801 0.8523786758850437 0  -0.5398754300847342 0.8417449257291804 0  -0.5566096624511303 0.8307741472061098 0  -0.5731210324752971 0.8194707329334279 0  -0.589402929128276 0.8078392087135957 0  -0.6054488332605281 0.7958842317218411 0  -0.6212523202121542 0.7836105886414597 0  -0.6368070623852793 0.7710231937472639 0  -0.652106831777575 0.7581270869379444 0  -0.6671455024759069 0.7449274317181304 0  -0.6819170531091018 0.7314295131309636 0  -0.6964155692588616 0.7176387356420052 0  -0.7106352458278521 0.7035606209753273 0  -0.7245703893640187 0.6892008059026588 0  -0.7382154203402043 0.6745650399864608 0  -0.751564875388149 0.6596591832778469 0  -0.7646134094859813 0.6444892039702628 0  -0.7773557980983258 0.6290611760098654 0  -0.7897869392681683 0.6133812766635599 0  -0.8019018556596398 0.59745578404567 0  -0.8136956965509062 0.5812910746042258 0  -0.8251637397763595 0.5648936205678839 0  -0.836301393617339 0.5482699873544935 0  -0.8471041986406197 0.5314268309423542 0  -0.8575678294839372 0.5143708952052097 0  -0.8676880965878292 0.497109009212054 0  -0.8774609478731045 0.4796480844928216 0  -0.8868824703632656 0.4619951122710621 0  -0.8959488917512338 0.4441571606647088 0  -0.904656581909754 0.426141371856055 0  -0.9130020543448703 0.4079549592320783 0  -0.920981967591891 0.3896052044962555 0  -0.9285931265532872 0.3710994547530226 0  -0.9358324837779861 0.3524451195660473 0  -0.9426971406815462 0.3336496679914984 0  -0.9491843487067303 0.3147206255874888 0  -0.9552915104240065 0.2956655714008993 0  -0.9610161805715396 0.2764921349327862 0  -0.9663560670342555 0.2572079930835851 0  -0.9713090317615876 0.2378208670793361 0  -0.9758730916235353 0.2183385193801658 0  -0.9800464192046954 0.198768750572253 0  -0.9838273435359444 0.1791193962445354 0  -0.987214350763483 0.159398323851397 0  -0.9902060847549714 0.1396134295625972 0  -0.9928013476425149 0.1197726351017052 0  -0.9949991003022804 0.09988388457430147 0  -0.9967984627705549 0.07995514128721509 0  -0.9981987145960756 0.05999438456007793 0  -0.9991992951284931 0.04000960653046362 0  -0.9997998037428526 0.02000880895389464 0  -1 1.224646799147353e-16 0  -0.9997998037428526 -0.0200088089538944 0  -0.9991992951284931 -0.04000960653046338 0  -0.9981987145960756 -0.05999438456007812 0  -0.9967984627705549 -0.07995514128721484 0  -0.9949991003022806 -0.09988388457430078 0  -0.9928013476425149 -0.1197726351017049 0  -0.9902060847549715 -0.1396134295625965 0  -0.9872143507634831 -0.1593983238513963 0  -0.9838273435359444 -0.1791193962445356 0  -0.9800464192046953 -0.1987687505722532 0  -0.9758730916235354 -0.2183385193801655 0  -0.9713090317615876 -0.2378208670793363 0  -0.9663560670342556 -0.2572079930835848 0  -0.9610161805715396 -0.276492134932786 0  -0.9552915104240066 -0.2956655714008991 0  -0.9491843487067305 -0.3147206255874881 0  -0.9426971406815464 -0.3336496679914978 0  -0.9358324837779862 -0.3524451195660471 0  -0.9285931265532875 -0.371099454753022 0  -0.9209819675918909 -0.3896052044962557 0  -0.9130020543448704 -0.407954959232078 0  -0.9046565819097541 -0.4261413718560548 0  -0.8959488917512338 -0.4441571606647086 0  -0.8868824703632655 -0.4619951122710623 0  -0.8774609478731046 -0.4796480844928214 0  -0.8676880965878293 -0.4971090092120538 0  -0.8575678294839373 -0.5143708952052095 0  -0.84710419864062 -0.5314268309423537 0  -0.8363013936173395 -0.5482699873544929 0  -0.8251637397763596 -0.5648936205678838 0  -0.8136956965509061 -0.5812910746042259 0  -0.8019018556596399 -0.5974557840456699 0  -0.7897869392681682 -0.61338127666356 0  -0.777355798098326 -0.6290611760098652 0  -0.7646134094859816 -0.6444892039702625 0  -0.7515648753881492 -0.6596591832778468 0  -0.7382154203402048 -0.6745650399864603 0  -0.7245703893640192 -0.6892008059026583 0  -0.7106352458278522 -0.7035606209753272 0  -0.6964155692588621 -0.7176387356420046 0  -0.6819170531091017 -0.7314295131309637 0  -0.667145502475907 -0.7449274317181303 0  -0.6521068317775756 -0.758127086937944 0  -0.6368070623852792 -0.7710231937472641 0  -0.6212523202121544 -0.7836105886414596 0  -0.6054488332605283 -0.795884231721841 0  -0.5894029291282762 -0.8078392087135956 0  -0.5731210324752977 -0.8194707329334274 0  -0.5566096624511304 -0.8307741472061095 0  -0.5398754300847344 -0.8417449257291802 0  -0.5229250356374798 -0.8523786758850437 0  -0.5057652659204195 -0.8626711399997379 0  -0.4884029915768943 -0.872618197047678 0  -0.4708451643315825 -0.8822158643016828 0  -0.4530988142070805 -0.8914602989276289 0  -0.4351710467091333 -0.900347799523094 0  -0.4170690399816467 -0.9088748075993677 0  -0.3988000419326073 -0.9170379090062475 0  -0.3803713673320777 -0.9248338352990366 0  -0.3617903948834162 -0.9322594650472055 0  -0.3430645642688988 -0.9393118250841893 0  -0.3242013731709283 -0.9459880916978207 0  -0.3052083742700169 -0.9522855917609241 0  -0.2860931722207477 -0.9582018038016155 0  -0.2668634206069305 -0.963734359012881 0  -0.2475268188771631 -0.968881042201029 0  -0.2280911092620301 -0.9736397926726376 0  -0.2085640736741706 -0.9780087050596407 0  -0.1889535305924619 -0.9819860300822225 0  -0.1692673319315544 -0.9855701752492173 0  -0.1495133598980269 -0.9887597054957302 0  -0.1296995238344092 -0.9915533437577262 0  -0.1098337570523396 -0.9939499714833577 0  -0.08992401365612945 -0.9959486290808237 0  -0.06997826535799691 -0.9975485163025836 0  -0.05000449828625168 -0.9987489925657699 0  -0.030010709787
[...]
<PointData  Scalars="Displacement"> 
<DataArray  type="Float64"  Name="Displacement"  format="ascii">0.0000000000000000e+00  0.0000000000000000e+00  0.0000000000000000e+00  0.0000000000000000e+00  0.0000000000000000e+00  0.0000000000000000e+00  0.0000000000000000e+00  0.0000000000000000e+00  0.0000000000000000e+00  0.0000000000000000e+00  0.0000000000000000e+00  0.0000000000000000e+00  0.0000000000000000e+00  0.0000000000000000e+00  0.0000000000000000e+00  0.0000000000000000e+00  0.0000000000000000e+00  0.0000000000000000e+00  0.0000000000000000e+00  0.0000000000000000e+00  0.0000000000000000e+00  0.0000000000000000e+00  0.0000000000000000e+00  0.0000000000000000e+00  0.0000000000000000e+00  0.0000000000000000e+00  0.0000000000000000e+00  0.0000000000000000e+00  0.0000000000000000e+00  0.0000000000000000e+00  0.0000000000000000e+00  0.0000000000000000e+00  0.0000000000000000e+00  0.0000000000000000e+00  0.0000000000000000e+00  0.0000000000000000e+00  0.0000000000000000e+00  0.0000000000000000e+00  0.0000000000000000e+00  0.0000000000000000e+00  0.0000000000000000e+00  0.0000000000000000e+00  0.0000000000000000e+00  0.0000000000000000e+00  0.0000000000000000e+00  0.0000000000000000e+00  0.0000000000000000e+00  0.0000000000000000e+00  0.0000000000000000e+00  0.0000000000000000e+00  0.0000000000000000e+00  0.0000000000000000e+00  0.0000000000000000e+00  0.0000000000000000e+00  0.0000000000000000e+00  0.0000000000000000e+00  0.0000000000000000e+00  0.0000000000000000e+00  0.0000000000000000e+00  0.0000000000000000e+00  0.0000000000000000e+00  0.0000000000000000e+00  0.0000000000000000e+00  0.0000000000000000e+00  0.0000000000000000e+00  0.0000000000000000e+00  0.0000000000000000e+00  0.0000000000000000e+00  0.0000000000000000e+00  0.0000000000000000e+00  0.0000000000000000e+00  0.0000000000000000e+00  0.0000000000000000e+00  0.0000000000000000e+00  0.0000000000000000e+00  0.0000000000000000e+00  0.0000000000000000e+00  0.0000000000000000e+00  0.0000000000000000e+00  0.0000000000000000e+00  0.0000000000000000e+00  0.0000000000000000e+00  0.0000000000000000e+00  0.0000000000000000e+00  0.0000000000000000e+00  0.0000000000000000e+00  0.0000000000000000e+00  0.0000000000000000e+00  0.0000000000000000e+00  0.0000000000000000e+00  0.0000000000000000e+00  0.0000000000000000e+00  0.0000000000000000e+00  0.0000000000000000e+00  0.0000000000000000e+00  0.0000000000000000e+00  0.0000000000000000e+00  0.0000000000000000e+00  0.0000000000000000e+00  0.0000000000000000e+00  0.0000000000000000e+00  0.0000000000000000e+00  0.0000000000000000e+00  0.0000000000000000e+00  0.0000000000000000e+00  0.0000000000000000e+00  0.0000000000000000e+00  0.0000000000000000e+00  0.0000000000000000e+00  0.0000000000000000e+00  0.0000000000000000e+00  0.0000000000000000e+00  0.0000000000000000e+00  0.0000000000000000e+00  0.0000000000000000e+00  0.0000000000000000e+00  0.0000000000000000e+00  0.0000000000000000e+00  0.0000000000000000e+00  0.0000000000000000e+00  0.0000000000000000e+00  0.0000000000000000e+00  0.0000000000000000e+00  0.0000000000000000e+00  0.0000000000000000e+00  0.0000000000000000e+00  0.0000000000000000e+00  0.0000000000000000e+00  0.0000000000000000e+00  0.0000000000000000e+00  0.0000000000000000e+00  0.0000000000000000e+00  0.0000000000000000e+00  0.0000000000000000e+00  0.0000000000000000e+00  0.0000000000000000e+00  0.0000000000000000e+00  0.0000000000000000e+00  0.0000000000000000e+00  0.0000000000000000e+00  0.0000000000000000e+00  0.0000000000000000e+00  0.0000000000000000e+00  0.0000000000000000e+00  0.0000000000000000e+00  0.0000000000000000e+00  0.0000000000000000e+00  0.0000000000000000e+00  0.0000000000000000e+00  0.0000000000000000e+00  0.0000000000000000e+00  0.0000000000000000e+00  0.0000000000000000e+00  0.0000000000000000e+00  0.0000000000000000e+00  0.0000000000000000e+00  0.0000000000000000e+00  0.0000000000000000e+00  0.0000000000000000e+00  0.0000000000000000e+00  0.0000000000000000e+00  0.0000000000000000e+00  0.0000000000000000e+00  0.0000000000000000e+00  0.0000000000000000e+00  0.0000000000000000e+00  0.0000000000000000e+00  0.0000000000000000e+00  0.0000000000000000e+00  0.0000000000000000e+00  0.0000000000000000e+00  0.0000000000000000e+00  0.0000000000000000e+00  0.0000000000000000e+00  0.0000000000000000e+00  0.0000000000000000e+00  0.0000000000000000e+00  0.0000000000000000e+00  0.0000000000000000e+00  0.0000000000000000e+00  0.0000000000000000e+00  0.0000000000000000e+00  0.0000000000000000e+00  0.0000000000000000e+00  0.0000000000000000e+00  0.0000000000000000e+00  0.0000000000000000e+00  0.0000000000000000e+00  0.0000000000000000e+00  0.0000000000000000e+00  0.0000000000000000e+00  0.0000000000000000e+00  0.0000000000000000e+00  0.0000000000000000e+00  0.0000000000000000e+00  0.0000000000000000e+00  0.0000000000000000e+00  0.0000000000000000e+00  0.0000000000000000e+00  0.0000000000000000e+00  0.0000000000000000e+00  0.0000000000000000e+00  0.0000000000000000e+00  0.0000000000000000e+00  0.0000000000000000e+00  0.0000000000000000e+00  0.0000000000000000e+00  0.0000000000000000e+00  0.0000000000000000e+00  0.0000000000000000e+00  0.0000000000000000e+00  0.0000000000000000e+00  0.0000000000000000e+00  0.0000000000000000e+00  0.0000000000000000e+00  0.0000000000000000e+00  0.0000000000000000e+00  0.0000000000000000e+00  0.0000000000000000e+00  0.0000000000000000e+00  0.0000000000000000e+00  0.0000000000000000e+00  0.0000000000000000e+00  0.0000000000000000e+00  0.0000000000000000e+00  0.0000000000000000e+00  0.0000000000000000e+00  0.0000000000000000e+00  0.0000000000000000e+00  0.0000000000000000e+00  0.0000000000000000e+00  0.0000000000000000e+00  0.0000000000000000e+00  0.0000000000000000e+00  0.0000000000000000e+00  0.0000000000000000e+00  0.0000000000000000e+00  0.0000000000000000e+00  0.0000000000000000e+00  0.0000000000000000e+00  0.0000000000000000e+00  0.0000000000000000e+00  0.0000000000000000e+00  0.0000000000000000e+00  0.0000000000000000e+00  0.0000000000000000e+00  0.0000000000000000e+00  0.0000000000000000e+00  0.0000000000000000e+00  0.0000000000000000e+00  0.0000000000000000e+00  0.0000000000000000e+00  0.0000000000000000e+00  0.0000000000000000e+00  0.0000000000000000e+00  0.0000000000000000e+00  0.0000000000000000e+00  0.0000000000000000e+00  0.0000000000000000e+00  0.0000000000000000e+00  0.0000000000000000e+00  0.0000000000000000e+00  0.0000000000000000e+00  0.0000000000000000e+00  0.0000000000000000e+00  0.0000000000000000e+00  0.0000000000000000e+00  0.0000000000000000e+00  0.0000000000000000e+00  0.0000000000000000e+00  0.0000000000000000e+00  0.0000000000000000e+00  0.0000000000000000e+00  0.0000000000000000e+00  0.0000000000000000e+00  0.0000000000000000e+00  0.0000000000000000e+00  0.0000000000000000e+00  0.0000000000000000e+00  0.0000000000000000e+00  0.0000000000000000e+00  0.0000000000000000e+00  0.0000000000000000e+00  0.0000000000000000e+00  0.0000000000000000e+00  0.0000000000000000e+00  0.0000000000000000e+00  0.0000000000000000e+00  0.0000000000000000e+00  0.0000000000000000e+00  0.0000000000000000e+00  0.0000000000000000e+00  0.0000000000000000e+00  0.0000000000000000e+00  0.0000000000000000e+00  0.0000000000000000e+00  0.0000000000000000e+00  0.0000000000000000e+00  0.0000000000000000e+00  0.0000000000000000e+00  0.0000000000000000e+00  0.0000000000000000e+00  0.0000000000000000e+00  0.0000000000000000e+00  0.0000000000000000e+00  0.0000000000000000e+00  0.0000000000000000e+00  0.0000000000000000e+00  0.0000000000000000e+00  0.0000000000000000e+00  0.0000000000000000e+00  0.0000000000000000e+00  0.0000000000000000e+00  0.0000000000000000e+00  -1.8606967540212613e-02  6.4954056141316024e-02  6.5381896783954965e-02  6.5010338238715562e-02  6.5426010409026250e-02  6.5480122336249488e-02  2.9322496732391859e-02  1.7707493245791083e-02  1.6810251223862767e-02  1.3737905254804356e-02  1.3404312339116341e-02  -7.6506561019359320e-02  1.1092513263463364e-02  1.1295564065845986e-02  -1.0605147844507573e-01  -1.2864817772263015e-01  8.9144122770199504e-03  8.7453107618501030e-03  8.6125422334288847e-03  8.8480272505164562e-03  8.4808429134059383e-03  8.3191081786842362e-03  8.4303984903536210e-03  8.8415672054042480e-02  8.8257208886833888e-02  -2.1968895989926954e-01  9.1392695480194165e-03  6.4685875984683873e-03  6.9068490364568649e-03  8.5248464634950338e-02  6.8835133702125897e-03  -1.5669709671020790e-01  -2.8552408150719982e-01  7.3785360672622660e-02  6.1869884414274190e-03  5.5204108681063003e-03  5.6392780922240480e-03  5.4438373382793238e-03  5.4828571156255220e-03  3.2400292262195131e-02  3.1166689031927944e-02  2.9237838449606479e-02  2.9360708043385510e-02  -3.1253091575238046e-01  4.8821487561454850e-03  4.9992402687426950e-03  4.8823674234963112e-03  4.6632298932487897e-03  2.4952440534567553e-02  2.6585848380501698e-02  1.2516333560231510e-02  3.2929313376234136e-02  2.7862411110024913e-02  9.1390864433546368e-02  4.3029996632774634e-03  -3.1759639766163622e-01  4.7721672363167386e-03  4.2181587786284452e-03  -2.2927606887943736e-02  4.2601820450701537e-03  4.1733003610897115e-03  1.3974194677236023e-02  4.0973894921490480e-03  4.2546727077344710e-03  -2.3268011893040834e-02  -2.2485403972986809e-01  8.1079943790873993e-02  9.1222824057726470e-02  7.6312350450233921e-02  -3.1639139872949745e-01  -2.6765133572546153e-02  2.5679013336595818e-02  1.8223127889174871e-02  1.9593998977324414e-02  1.9636085743982332e-02  3.4007543528287928e-02  4.2904612289859645e-03  9.9508415508791595e-02  3.0496715481906102e-02  1.5414639773251760e-02  3.7184547159726591e-03  9.2077551265042842e-02  3.6083473711216131e-03  3.9113540466048299e-03  3.6301669666336696e-03  -3.0699221919773101e-01  3.5760121451456381e-03  3.5319930308678536e-03  3.3581355327791601e-03  7.3092598299822745e-02  1.2859418089156447e-02  3.3027901915144756e-03  1.8648042593070326e-02  3.3300904620109342e-03  1.2716693301211911e-02  -3.1579173127209098e-01  3.7538870234799294e-03  3.1118943868309128e-03  1.1880313696015500e-02  1.1034280410834344e-02  1.5935042500457946e-02  1.2048935109239479e-02  3.3447669377226845e-03  9.8487544716522296e-02  3.6663221966089829e-02  3.6171559030613420e-02  1.0176392988308623e-01  1.1139495662236624e-02  1.1791785103290969e-02  2.7961398763486078e-03  1.0193622575286616e-01  2.9518803917659977e-03  3.0671630756454560e-03  2.3784091589158368e-02  2.1615365107709606e-02  1.0446280685707528e-02  2.7136368483843170e-03  3.0720846063009223e-03  3.0668725836685566e-03  -3.1607327903083082e-01  1.0050088389358343e-01  7.7884865573297456e-03  -1.2092012500054974e-01  4.1372699447106160e-03  9.0441443560458738e-03  1.3350950115574477e-02  3.1840044585711544e-03  2.7175467014236400e-03  8.7727679384420280e-03  8.8013310641504583e-03  1.3577219483793437e-02  9.3062476292761296e-03  1.8237480171306865e-02  8.9270292515471208e-02  2.5087349438214484e-02  1.1075510403885946e-02  2.9923166717678905e-03  -1.4411707704261245e-01  6.9833053728876285e-02  -4.5418041478842756e-02  -2.5723300768852742e-01  -1.4661507521006156e-01  6.4438598543021305e-03  1.0158023027985648e-01  2.3631345964975434e-02  6.7227694070774602e-03  6.9847713883261784e-03  -8.9734388121055941e-02  -3.1011583617072758e-01  1.6873742547488576e-02  2.3473040671307382e-03  2.2914286762334115e-02  7.3914883342711415e-02  7.6197988264607944e-03  7.6263253144378774e-03  4.5734634625768759e-03  2.3286903620543436e-03  7.2047380259771662e-03  2.4647441178438454e-03  2.4508911875358200e-03  2.5399568170652274e-03  6.9263587418392503e-03  1.4952923630837061e-02  2.5841062765760508e-03  5.7918916566338866e-03  5.5793013387787152e-02  7.8801509471211201e-03  3.2080419477285450e-03  2.3260503088284963e-03  6.7464672639400364e-03  2.6618879683945419e-02  -2.3907410779466262e-01  6.9138067464394664e-03  8.3393686527554189e-02  2.1997764597555406e-03  9.4220073315428990e-02  2.3848066774595951e-03  8.4154460470719193e-03  2.3768527413084791e-03  7.8141177459847291e-02  6.4101030574480024e-03  4.2053969562391720e-02  2.5121810855786880e-02  -2.4069646265959144e-01  2.5154015369820222e-03  3.3213345747062049e-02  1.6693685286004584e-02  7.5473759320467557e-02  2.1488359924375033e-03  5.0592552903242225e-03  2.3547020956160613e-03  -3.1135483881951292e-01  2.3030530264386002e-03  2.1865014365457648e-03  4.1000630221472247e-02  -7.0719071111219431e-04  8.0713456076095171e-03  6.3342977112429300e-03  5.4466604529544715e-02  1.4809583684738451e-02  2.2133081124281924e-02  2.7280843158023513e-02  6.8789889987337635e-02  1.6176751071653693e-02  2.2275733487021474e-02  6.4363516111280890e-03  6.4118869587954652e-03  -1.9403425426784138e-01  3.5058664731363216e-03  6.1341631784304698e-03  8.7376731917043499e-03  -3.0107905467296631e-01  -2.2558434423552542e-01  2.0857523293106995e-03  2.0356710866652563e-03  6.9625285330027174e-03  8.3317684593089678e-02  2.4448138650432754e-03  1.6759958065227717e-02  1.4047382340278688e-02  4.5997842163433009e-03  1.2422655939781457e-02  9.9514239376358782e-02  1.7588911692918933e-02  1.4161741872150954e-02  2.3957256728474366e-03  1.0985391832192340e-02  1.8838628087510794e-03  1.4212871941139956e-02  2.1276695132122314e-03  2.7884856294346635e-03  2.3355485893363382e-03  1.9651948205185073e-03  4.8385086920848209e-03  2.1347979464399090e-03  9.5084618718975500e-02  2.3015507924456065e-02  5.4019275120029469e-03  5.7139593982467709e-03  -1.6740928104679373e-01  -5.1201059487235683e-02  1.6654826339006789e-02  1.8681348658082256e-02  2.9840455092106158e-03  6.0853865046969526e-02  1.9219142714133044e-03  1.8381660152794301e-03  1.9901050831599315e-03  6.6200619181662479e-02  8.0851738347188118e-02  3.0083111587041494e-02  3.2277518381250606e-02  -1.1970366945516996e-01  -2.2861732877331184e-01  5.2049689153607264e-03  9.0218992565018724e-02  7.2033612842339655e-03  3.4476365763828787e-02  2.6381324249738604e-03  2.0624640690426557e-03  2.6919609582122480e-03  1.1075680930027820e-02  5.6342848353299916e-03  2.5781801605044872e-02  8.5362808323898864e-02  9.5309035851687929e-02  4.5171188067905602e-03  3.0866726673141626e-03  2.8277250014417574e-03  2.5726778268814289e-02  1.8694180212650098e-03  7.0890853687222824e-02  8.9616587725737051e-02  8.2175542188470951e-03  6.0064734627717220e-03  1.1349511425353124e-02  2.0465229018190090e-02  -1.7735976179164177e-02  7.7306467139229298e-02  4.3845715284554894e-02  -4.1944380963163309e-02  -2.2628729891510607e-01  -2.5847078989150724e-01  1.4513500386606258e-02  1.1365808867996806e-02  8.5393706001258372e-03  -4.6935833972608337e-02  2.0359973685658088e-03  5.7187889125055215e-03  9.9399298764438357e-02  -2.5060289909402805e-01  9.1374267940093873e-02  1.6306266489740099e-02  2.8948058377731095e-02  -2.8706033244110268e-01  1.8962252096049210e-03  3.2358748484304353e-02  1.9881479658575532e-03  1.8619651928610929e-03  1.8573238152958136e-03  -3.1617544196678105e-01  -2.0245458783905587e-01  -1.4992884428014852e-02  -1.9085525689218139e-01  1.2238521895852549e-02  1.7913239508921514e-02  9.4271256137175019e-03  2.4114925077415084e-02  1.4410192762643947e-02  1.6785129560833660e-02  3.3564724582265226e-02  1.4987889281317290e-02  -4.3769251872825966e-02  8.0101706830900277e-03  -2.5877842264662959e-01  -2.1693769096070226e-01  2.6818841999895659e-02  9.3502452498452765e-03  1.1863104894536135e-02  1.8966324126890963e-03  6.4942508744293154e-03  6.8735097747927793e-03  1.7517290950352859e-03  4.1531273132781273e-02  1.6891226449026223e-03  1.6621078619947131e-03  4.9377347281676972e-03  1.0017157435277026e-01  7.0658817920360981e-02  -1.0549276615622311e-01  1.7802444241365970e-03  9.6789348061215724e-03  1.5045416783580009e-02  4.8898066806648974e-02  2.4890535102962297e-02  8.5823125844747012e-03  6.1049503774258378e-02  4.0106919322426049e-02  -2.2125709956195402e-01  1.2602003721815386e-02  6.0817109299624236e-03  6.4950832051450288e-02  4.5529430443285107e-03  4.2096519919633630e-03  1.2527144045901877e-02  1.7453713406691122e-03  6.2058754394376759e-03  6.7860394634098676e-03  1.7385201095473002e-03  1.1854428829523860e-02  1.2308371268416251e-02  1.4950052250338628e-03  4.6447949593754504e-03  1.5153051936043277e-03  5.2683668766793550e-03  4.5473454641197838e-03  3.0546578380789245e-02  -1.6865991394264485e-01  4.2238036743291818e-03  -3.1662991125490075e-01  -2.9269611353701208e-01  8.0080685177779214e-03  1.6490153929330509e-03  2.1834344060311608e-02  4.1914001794487281e-03  -5.9158417053453115e-03  4.3327801688079794e-03  1.0792789314747989e-02  -2.7909633794075150e-01  5.7203785511940573e-03  1.6707622751546312e-03  2.3857207010034034e-03  6.0386787876101911e-03  6.9585946733237772e-02  9.9717654946207518e-02  1.0835886322281890e-02  2.1950313515937451e-03  -3.1853870889767882e-01  2.0863293344881580e-02  1.6446583341697834e-03  3.9656557701532702e-02  1.5786952523129158e-03  5.3012001431914689e-03  6.0948619230880838e-02  1.6992200445404442e-03  -2.2866055141885583e-01  1.4082075621405438e-03  5.9951698580127596e-03  1.6115308723435374e-03  1.0121732864639089e-01  2.5851553192133260e-02  1.2490839691141989e-02  2.6976100509431927e-02  1.7366875420039374e-03  5.2320138537850693e-03  1.0037923719548342e-01  2.4435327164635617e-03  1.8892641224262461e-02  8.3530388962284891e-03  1.6175426256475713e-03  1.5763725184833950e-03  3.1753298832609224e-02  4.0778905183819474e-03  9.1151055659059607e-02  8.5652289401159237e-03  3.3731463011584160e-02  2.5290725488278328e-02  1.5804912774624012e-03  4.7643081425239693e-03  5.8880641364743441e-03  3.9426022197778295e-03  4.1523915168245867e-03  9.8640183387423488e-02  7.3729536107583066e-02  -2.6175395732559092e-01  8.0033765348198144e-02  5.5168490653246553e-03  -1.0950386744041442e-01  7.0607366934333005e-02  5.0726948438865630e-03  1.4396275246975642e-03  2.3667033165556670e-03  1.7777693249014539e-02  1.3945830182528374e-02  8.7601224994900157e-03  8.4617846216810150e-02  9.1361286408579798e-03  1.2916261007299957e-03  1.4850731450424782e-03  1.8689969227701710e-03  1.4051921441966977e-02  4.5348672029076418e-03  8.2514527831897486e-03  4.0701294594377288e-03  4.8172086608279461e-03  4.8470381622580704e-03  1.8108531762075563e-02  5.2562988612483517e-03  6.3801303665270842e-02  2.1961985538056613e-02  2.9391373847324966e-02  2.0743317801282534e-02  4.3148193973789689e-02  1.0233117622507217e-01  3.8072060952990512e-03  1.0207588995974244e-01  7.3826099397509490e-03  -2.9553092615764165e-01  1.6328302797185258e-02  6.1359493446150694e-02  3.5482074837573548e-02  9.6512504997116402e-02  3.6551568744590643e-03  1.4260088080638928e-03  1.5565373259614403e-03  -1.3542118627190977e-01  1.2167762066302237e-02  4.7990265684210429e-02  6.5242009165659948e-02  3.3162467531661910e-03  2.2453120121715374e-02  1.3555589983738265e-03  -2.3830831790213944e-01  -1.1529008545831835e-02  7.5001646171055925e-02  7.7709947663883033e-03  4.7309346082089771e-03  3.9804259817538311e-03  9.1444649437144431e-03  9.4084792576050510e-03  2.6363634862809890e-02  3.6348188614742710e-03  7.7748006829660835e-02  4.6624250458061414e-02  5.5891994031075209e-03  -2.4353576032285451e-01  9.6160230352513761e-03  4.9147660702402805e-02  1.1394624654278263e-02  1.7384994968153711e-02  1.4719837553268760e-02  7.7185332376048703e-03  1.4270829858088131e-03  4.4740172239392251e-03  1.2754157645120977e-03  3.5794874744414619e-03  2.3693463621302464e-03  4.6471867683206353e-02  6.2743880287451015e-03  2.4380666352289651e-02  7.9087900730964063e-03  1.0187933063149147e-01  2.6985845525201120e-02  4.4968025559057895e-03  2.3051479549403221e-03  1.0189141412623669e-01  2.1920033629964845e-03  9.7957949762300764e-04  1.4307508225233796e-03  3.7064568558128570e-02  3.4819725039398133e-03  1.4667861985166750e-03  3.4879539180200432e-02  3.1759848903909906e-02  1.6739241110836110e-02  7.3587795785918647e-03  3.6866681587056195e-03  7.6249732112224416e-03  8.8863701492212909e-03  1.5756903045949271e-02  2.1749476689158033e-02  1.5954217917121719e-02  3.39543965