<?xml version="1.0"?>
<VTKFile type="UnstructuredGrid"  version="0.1"  >
<UnstructuredGrid>
<Piece  NumberOfPoints="20054" NumberOfCells="39478">
<Points>
<DataArray  type="Float64"  NumberOfComponents="3"  format="ascii">1 0 0  0.9997998037428526 0.02000880895389431 0  0.9991992951284931 0.04000960653046352 0  0.9981987145960756 0.05999438456007805 0  0.9967984627705549 0.07995514128721501 0  0.9949991003022806 0.09988388457430118 0  0.9928013476425149 0.1197726351017051 0  0.9902060847549715 0.139613429562597 0  0.987214350763483 0.1593983238513969 0  0.9838273435359444 0.1791193962445356 0  0.9800464192046954 0.198768750572253 0  0.9758730916235354 0.2183385193801655 0  0.9713090317615876 0.237820867079336 0  0.9663560670342555 0.2572079930835849 0  0.9610161805715396 0.2764921349327862 0  0.9552915104240066 0.2956655714008991 0  0.9491843487067304 0.3147206255874884 0  0.9426971406815462 0.3336496679914983 0  0.9358324837779861 0.3524451195660473 0  0.9285931265532873 0.3710994547530225 0  0.9209819675918909 0.3896052044962556 0  0.9130020543448703 0.4079549592320781 0  0.9046565819097542 0.4261413718560547 0  0.8959488917512338 0.4441571606647087 0  0.8868824703632656 0.4619951122710622 0  0.8774609478731046 0.4796480844928215 0  0.8676880965878291 0.4971090092120542 0  0.8575678294839372 0.5143708952052096 0  0.8471041986406199 0.5314268309423539 0  0.8363013936173391 0.5482699873544935 0  0.8251637397763597 0.5648936205678837 0  0.8136956965509062 0.5812910746042258 0  0.8019018556596399 0.5974557840456699 0  0.7897869392681683 0.6133812766635599 0  0.777355798098326 0.6290611760098652 0  0.7646134094859813 0.6444892039702628 0  0.7515648753881492 0.6596591832778468 0  0.7382154203402046 0.6745650399864606 0  0.7245703893640189 0.6892008059026586 0  0.7106352458278521 0.7035606209753273 0  0.6964155692588616 0.7176387356420051 0  0.6819170531091018 0.7314295131309636 0  0.6671455024759069 0.7449274317181303 0  0.6521068317775753 0.7581270869379442 0  0.6368070623852795 0.7710231937472638 0  0.6212523202121545 0.7836105886414595 0  0.6054488332605282 0.795884231721841 0  0.5894029291282759 0.8078392087135958 0  0.5731210324752972 0.8194707329334278 0  0.5566096624511305 0.8307741472061095 0  0.5398754300847343 0.8417449257291802 0  0.5229250356374803 0.8523786758850435 0  0.5057652659204196 0.8626711399997378 0  0.4884029915768944 0.8726181970476778 0  0.4708451643315825 0.8822158643016828 0  0.45309881420708 0.8914602989276292 0  0.4351710467091336 0.9003477995230937 0  0.4170690399816468 0.9088748075993677 0  0.398800041932607 0.9170379090062476 0  0.3803713673320772 0.9248338352990368 0  0.3617903948834157 0.9322594650472057 0  0.3430645642688987 0.9393118250841893 0  0.3242013731709288 0.9459880916978206 0  0.3052083742700172 0.952285591760924 0  0.2860931722207478 0.9582018038016155 0  0.2668634206069304 0.963734359012881 0  0.2475268188771628 0.9688810422010291 0  0.2280911092620296 0.9736397926726377 0  0.2085640736741707 0.9780087050596407 0  0.1889535305924618 0.9819860300822225 0  0.1692673319315541 0.9855701752492174 0  0.1495133598980264 0.9887597054957302 0  0.1296995238344084 0.9915533437577263 0  0.1098337570523395 0.9939499714833577 0  0.08992401365612977 0.9959486290808237 0  0.06997826535799723 0.9975485163025836 0  0.05000449828625179 0.9987489925657699 0  0.03001070978771124 0.9995495772086734 0  0.01000490522562346 0.9999499496831961 0  -0.01000490522562333 0.9999499496831961 0  -0.03001070978771133 0.9995495772086734 0  -0.05000449828625144 0.9987489925657699 0  -0.06997826535799688 0.9975485163025836 0  -0.08992401365612987 0.9959486290808237 0  -0.1098337570523394 0.9939499714833577 0  -0.1296995238344082 0.9915533437577263 0  -0.1495133598980262 0.9887597054957303 0  -0.1692673319315537 0.9855701752492174 0  -0.1889535305924614 0.9819860300822226 0  -0.2085640736741705 0.9780087050596407 0  -0.2280911092620295 0.9736397926726377 0  -0.2475268188771627 0.9688810422010291 0  -0.2668634206069302 0.9637343590128811 0  -0.2860931722207475 0.9582018038016156 0  -0.3052083742700173 0.9522855917609239 0  -0.3242013731709289 0.9459880916978205 0  -0.3430645642688986 0.9393118250841894 0  -0.3617903948834154 0.9322594650472058 0  -0.380371367332077 0.924833835299037 0  -0.3988000419326071 0.9170379090062476 0  -0.4170690399816465 0.9088748075993678 0  -0.4351710467091335 0.9003477995230939 0  -0.4530988142070799 0.8914602989276292 0  -0.4708451643315824 0.8822158643016829 0  -0.4884029915768945 0.8726181970476778 0  -0.5057652659204197 0.8626711399997378 0  -0.5229250356374801 0.8523786758850437 0  -0.5398754300847342 0.8417449257291804 0  -0.5566096624511303 0.8307741472061098 0  -0.5731210324752971 0.8194707329334279 0  -0.589402929128276 0.8078392087135957 0  -0.6054488332605281 0.7958842317218411 0  -0.6212523202121542 0.7836105886414597 0  -0.6368070623852793 0.7710231937472639 0  -0.652106831777575 0.7581270869379444 0  -0.6671455024759069 0.7449274317181304 0  -0.6819170531091018 0.7314295131309636 0  -0.6964155692588616 0.7176387356420052 0  -0.7106352458278521 0.7035606209753273 0  -0.7245703893640187 0.6892008059026588 0  -0.7382154203402043 0.6745650399864608 0  -0.751564875388149 0.6596591832778469 0  -0.7646134094859813 0.6444892039702628 0  -0.7773557980983258 0.6290611760098654 0  -0.7897869392681683 0.6133812766635599 0  -0.8019018556596398 0.59745578404567 0  -0.8136956965509062 0.5812910746042258 0  -0.8251637397763595 0.5648936205678839 0  -0.836301393617339 0.5482699873544935 0  -0.8471041986406197 0.5314268309423542 0  -0.8575678294839372 0.5143708952052097 0  -0.8676880965878292 0.497109009212054 0  -0.8774609478731045 0.4796480844928216 0  -0.8868824703632656 0.4619951122710621 0  -0.8959488917512338 0.4441571606647088 0  -0.904656581909754 0.426141371856055 0  -0.9130020543448703 0.4079549592320783 0  -0.920981967591891 0.3896052044962555 0  -0.9285931265532872 0.3710994547530226 0  -0.9358324837779861 0.3524451195660473 0  -0.9426971406815462 0.3336496679914984 0  -0.9491843487067303 0.3147206255874888 0  -0.9552915104240065 0.2956655714008993 0  -0.9610161805715396 0.2764921349327862 0  -0.9663560670342555 0.2572079930835851 0  -0.9713090317615876 0.2378208670793361 0  -0.9758730916235353 0.2183385193801658 0  -0.9800464192046954 0.198768750572253 0  -0.9838273435359444 0.1791193962445354 0  -0.987214350763483 0.159398323851397 0  -0.9902060847549714 0.1396134295625972 0  -0.9928013476425149 0.1197726351017052 0  -0.9949991003022804 0.09988388457430147 0  -0.9967984627705549 0.07995514128721509 0  -0.9981987145960756 0.05999438456007793 0  -0.9991992951284931 0.04000960653046362 0  -0.9997998037428526 0.02000880895389464 0  -1 1.224646799147353e-16 0  -0.9997998037428526 -0.0200088089538944 0  -0.9991992951284931 -0.04000960653046338 0  -0.9981987145960756 -0.05999438456007812 0  -0.9967984627705549 -0.07995514128721484 0  -0.9949991003022806 -0.09988388457430078 0  -0.9928013476425149 -0.1197726351017049 0  -0.9902060847549715 -0.1396134295625965 0  -0.9872143507634831 -0.1593983238513963 0  -0.9838273435359444 -0.1791193962445356 0  -0.9800464192046953 -0.1987687505722532 0  -0.9758730916235354 -0.2183385193801655 0  -0.9713090317615876 -0.2378208670793363 0  -0.9663560670342556 -0.2572079930835848 0  -0.9610161805715396 -0.276492134932786 0  -0.9552915104240066 -0.2956655714008991 0  -0.9491843487067305 -0.3147206255874881 0  -0.9426971406815464 -0.3336496679914978 0  -0.9358324837779862 -0.3524451195660471 0  -0.9285931265532875 -0.371099454753022 0  -0.9209819675918909 -0.3896052044962557 0  -0.9130020543448704 -0.407954959232078 0  -0.9046565819097541 -0.4261413718560548 0  -0.8959488917512338 -0.4441571606647086 0  -0.8868824703632655 -0.4619951122710623 0  -0.8774609478731046 -0.4796480844928214 0  -0.8676880965878293 -0.4971090092120538 0  -0.8575678294839373 -0.5143708952052095 0  -0.84710419864062 -0.5314268309423537 0  -0.8363013936173395 -0.5482699873544929 0  -0.8251637397763596 -0.5648936205678838 0  -0.8136956965509061 -0.5812910746042259 0  -0.8019018556596399 -0.5974557840456699 0  -0.7897869392681682 -0.61338127666356 0  -0.777355798098326 -0.6290611760098652 0  -0.7646134094859816 -0.6444892039702625 0  -0.7515648753881492 -0.6596591832778468 0  -0.7382154203402048 -0.6745650399864603 0  -0.7245703893640192 -0.6892008059026583 0  -0.7106352458278522 -0.7035606209753272 0  -0.6964155692588621 -0.7176387356420046 0  -0.6819170531091017 -0.7314295131309637 0  -0.667145502475907 -0.7449274317181303 0  -0.6521068317775756 -0.758127086937944 0  -0.6368070623852792 -0.7710231937472641 0  -0.6212523202121544 -0.7836105886414596 0  -0.6054488332605283 -0.795884231721841 0  -0.5894029291282762 -0.8078392087135956 0  -0.5731210324752977 -0.8194707329334274 0  -0.5566096624511304 -0.8307741472061095 0  -0.5398754300847344 -0.8417449257291802 0  -0.5229250356374798 -0.8523786758850437 0  -0.5057652659204195 -0.8626711399997379 0  -0.4884029915768943 -0.872618197047678 0  -0.4708451643315825 -0.8822158643016828 0  -0.4530988142070805 -0.8914602989276289 0  -0.4351710467091333 -0.900347799523094 0  -0.4170690399816467 -0.9088748075993677 0  -0.3988000419326073 -0.9170379090062475 0  -0.3803713673320777 -0.9248338352990366 0  -0.3617903948834162 -0.9322594650472055 0  -0.3430645642688988 -0.9393118250841893 0  -0.3242013731709283 -0.9459880916978207 0  -0.3052083742700169 -0.9522855917609241 0  -0.2860931722207477 -0.9582018038016155 0  -0.2668634206069305 -0.963734359012881 0  -0.2475268188771631 -0.968881042201029 0  -0.2280911092620301 -0.9736397926726376 0  -0.2085640736741706 -0.9780087050596407 0  -0.1889535305924619 -0.9819860300822225 0  -0.1692673319315544 -0.9855701752492173 0  -0.1495133598980269 -0.9887597054957302 0  -0.1296995238344092 -0.9915533437577262 0  -0.1098337570523396 -0.9939499714833577 0  -0.08992401365612945 -0.9959486290808237 0  -0.06997826535799691 -0.9975485163025836 0  -0.05000449828625168 -0.9987489925657699 0  -0.030010709787
[...]
<PointData  Scalars="Displacement"> 
<DataArray  type="Float64"  Name="Displacement"  format="ascii">0.0000000000000000e+00  0.0000000000000000e+00  0.0000000000000000e+00  0.0000000000000000e+00  0.0000000000000000e+00  0.0000000000000000e+00  0.0000000000000000e+00  0.0000000000000000e+00  0.0000000000000000e+00  0.0000000000000000e+00  0.0000000000000000e+00  0.0000000000000000e+00  0.0000000000000000e+00  0.0000000000000000e+00  0.0000000000000000e+00  0.0000000000000000e+00  0.0000000000000000e+00  0.0000000000000000e+00  0.0000000000000000e+00  0.0000000000000000e+00  0.0000000000000000e+00  0.0000000000000000e+00  0.0000000000000000e+00  0.0000000000000000e+00  0.0000000000000000e+00  0.0000000000000000e+00  0.0000000000000000e+00  0.0000000000000000e+00  0.0000000000000000e+00  0.0000000000000000e+00  0.0000000000000000e+00  0.0000000000000000e+00  0.0000000000000000e+00  0.0000000000000000e+00  0.0000000000000000e+00  0.0000000000000000e+00  0.0000000000000000e+00  0.0000000000000000e+00  0.0000000000000000e+00  0.0000000000000000e+00  0.0000000000000000e+00  0.0000000000000000e+00  0.0000000000000000e+00  0.0000000000000000e+00  0.0000000000000000e+00  0.0000000000000000e+00  0.0000000000000000e+00  0.0000000000000000e+00  0.0000000000000000e+00  0.0000000000000000e+00  0.0000000000000000e+00  0.0000000000000000e+00  0.0000000000000000e+00  0.0000000000000000e+00  0.0000000000000000e+00  0.0000000000000000e+00  0.0000000000000000e+00  0.0000000000000000e+00  0.0000000000000000e+00  0.0000000000000000e+00  0.0000000000000000e+00  0.0000000000000000e+00  0.0000000000000000e+00  0.0000000000000000e+00  0.0000000000000000e+00  0.0000000000000000e+00  0.0000000000000000e+00  0.0000000000000000e+00  0.0000000000000000e+00  0.0000000000000000e+00  0.0000000000000000e+00  0.0000000000000000e+00  0.0000000000000000e+00  0.0000000000000000e+00  0.0000000000000000e+00  0.0000000000000000e+00  0.0000000000000000e+00  0.0000000000000000e+00  0.0000000000000000e+00  0.0000000000000000e+00  0.0000000000000000e+00  0.0000000000000000e+00  0.0000000000000000e+00  0.0000000000000000e+00  0.0000000000000000e+00  0.0000000000000000e+00  0.0000000000000000e+00  0.0000000000000000e+00  0.0000000000000000e+00  0.0000000000000000e+00  0.0000000000000000e+00  0.0000000000000000e+00  0.0000000000000000e+00  0.0000000000000000e+00  0.0000000000000000e+00  0.0000000000000000e+00  0.0000000000000000e+00  0.0000000000000000e+00  0.0000000000000000e+00  0.0000000000000000e+00  0.0000000000000000e+00  0.0000000000000000e+00  0.0000000000000000e+00  0.0000000000000000e+00  0.0000000000000000e+00  0.0000000000000000e+00  0.0000000000000000e+00  0.0000000000000000e+00  0.0000000000000000e+00  0.0000000000000000e+00  0.0000000000000000e+00  0.0000000000000000e+00  0.0000000000000000e+00  0.0000000000000000e+00  0.0000000000000000e+00  0.0000000000000000e+00  0.0000000000000000e+00  0.0000000000000000e+00  0.0000000000000000e+00  0.0000000000000000e+00  0.0000000000000000e+00  0.0000000000000000e+00  0.0000000000000000e+00  0.0000000000000000e+00  0.0000000000000000e+00  0.0000000000000000e+00  0.0000000000000000e+00  0.0000000000000000e+00  0.0000000000000000e+00  0.0000000000000000e+00  0.0000000000000000e+00  0.0000000000000000e+00  0.0000000000000000e+00  0.0000000000000000e+00  0.0000000000000000e+00  0.0000000000000000e+00  0.0000000000000000e+00  0.0000000000000000e+00  0.0000000000000000e+00  0.0000000000000000e+00  0.0000000000000000e+00  0.0000000000000000e+00  0.0000000000000000e+00  0.0000000000000000e+00  0.0000000000000000e+00  0.0000000000000000e+00  0.0000000000000000e+00  0.0000000000000000e+00  0.0000000000000000e+00  0.0000000000000000e+00  0.0000000000000000e+00  0.0000000000000000e+00  0.0000000000000000e+00  0.0000000000000000e+00  0.0000000000000000e+00  0.0000000000000000e+00  0.0000000000000000e+00  0.0000000000000000e+00  0.0000000000000000e+00  0.0000000000000000e+00  0.0000000000000000e+00  0.0000000000000000e+00  0.0000000000000000e+00  0.0000000000000000e+00  0.0000000000000000e+00  0.0000000000000000e+00  0.0000000000000000e+00  0.0000000000000000e+00  0.0000000000000000e+00  0.0000000000000000e+00  0.0000000000000000e+00  0.0000000000000000e+00  0.0000000000000000e+00  0.0000000000000000e+00  0.0000000000000000e+00  0.0000000000000000e+00  0.0000000000000000e+00  0.0000000000000000e+00  0.0000000000000000e+00  0.0000000000000000e+00  0.0000000000000000e+00  0.0000000000000000e+00  0.0000000000000000e+00  0.0000000000000000e+00  0.0000000000000000e+00  0.0000000000000000e+00  0.0000000000000000e+00  0.0000000000000000e+00  0.0000000000000000e+00  0.0000000000000000e+00  0.0000000000000000e+00  0.0000000000000000e+00  0.0000000000000000e+00  0.0000000000000000e+00  0.0000000000000000e+00  0.0000000000000000e+00  0.0000000000000000e+00  0.0000000000000000e+00  0.0000000000000000e+00  0.0000000000000000e+00  0.0000000000000000e+00  0.0000000000000000e+00  0.0000000000000000e+00  0.0000000000000000e+00  0.0000000000000000e+00  0.0000000000000000e+00  0.0000000000000000e+00  0.0000000000000000e+00  0.0000000000000000e+00  0.0000000000000000e+00  0.0000000000000000e+00  0.0000000000000000e+00  0.0000000000000000e+00  0.0000000000000000e+00  0.0000000000000000e+00  0.0000000000000000e+00  0.0000000000000000e+00  0.0000000000000000e+00  0.0000000000000000e+00  0.0000000000000000e+00  0.0000000000000000e+00  0.0000000000000000e+00  0.0000000000000000e+00  0.0000000000000000e+00  0.0000000000000000e+00  0.0000000000000000e+00  0.0000000000000000e+00  0.0000000000000000e+00  0.0000000000000000e+00  0.0000000000000000e+00  0.0000000000000000e+00  0.0000000000000000e+00  0.0000000000000000e+00  0.0000000000000000e+00  0.0000000000000000e+00  0.0000000000000000e+00  0.0000000000000000e+00  0.0000000000000000e+00  0.0000000000000000e+00  0.0000000000000000e+00  0.0000000000000000e+00  0.0000000000000000e+00  0.0000000000000000e+00  0.0000000000000000e+00  0.0000000000000000e+00  0.0000000000000000e+00  0.0000000000000000e+00  0.0000000000000000e+00  0.0000000000000000e+00  0.0000000000000000e+00  0.0000000000000000e+00  0.0000000000000000e+00  0.0000000000000000e+00  0.0000000000000000e+00  0.0000000000000000e+00  0.0000000000000000e+00  0.0000000000000000e+00  0.0000000000000000e+00  0.0000000000000000e+00  0.0000000000000000e+00  0.0000000000000000e+00  0.0000000000000000e+00  0.0000000000000000e+00  0.0000000000000000e+00  0.0000000000000000e+00  0.0000000000000000e+00  0.0000000000000000e+00  0.0000000000000000e+00  0.0000000000000000e+00  0.0000000000000000e+00  0.0000000000000000e+00  0.0000000000000000e+00  0.0000000000000000e+00  0.0000000000000000e+00  0.0000000000000000e+00  0.0000000000000000e+00  0.0000000000000000e+00  0.0000000000000000e+00  0.0000000000000000e+00  0.0000000000000000e+00  0.0000000000000000e+00  0.0000000000000000e+00  0.0000000000000000e+00  0.0000000000000000e+00  0.0000000000000000e+00  0.0000000000000000e+00  0.0000000000000000e+00  0.0000000000000000e+00  0.0000000000000000e+00  0.0000000000000000e+00  0.0000000000000000e+00  0.0000000000000000e+00  0.0000000000000000e+00  0.0000000000000000e+00  0.0000000000000000e+00  0.0000000000000000e+00  0.0000000000000000e+00  0.0000000000000000e+00  0.0000000000000000e+00  0.0000000000000000e+00  0.0000000000000000e+00  0.0000000000000000e+00  0.0000000000000000e+00  0.0000000000000000e+00  0.0000000000000000e+00  0.0000000000000000e+00  0.0000000000000000e+00  0.0000000000000000e+00  0.0000000000000000e+00  0.0000000000000000e+00  0.0000000000000000e+00  0.0000000000000000e+00  0.0000000000000000e+00  0.0000000000000000e+00  -1.4332692427902954e+252  -4.6107229132204562e+248  2.2711452340926191e+249  1.0863182491986406e+253  -4.9045038057129889e+247  2.5691084604410778e+252  -8.8037713197787348e+247  -8.5468592289082323e+244  3.1402502011884955e+247  1.7159583376223274e+244  6.4892785004380824e+246  -3.6956630737012627e+254  1.4679538516658624e+248  -1.6062702455497319e+243  2.5244839481345027e+249  5.8616624742865157e+253  2.6489444453956915e+245  -4.8309467585933165e+245  2.6073001332653978e+243  -2.2815822184552649e+246  -2.2260534665233586e+240  2.9088574500224753e+242  8.2026429604297875e+242  3.1672909705620852e+250  1.1601298265327463e+255  -4.8441886807496241e+250  6.9211371074732810e+244  1.7517338351002111e+244  -4.4815273971573147e+245  -3.0112241967997974e+249  8.2038019499525976e+242  -7.9513148181840570e+254  -2.1880505669984586e+254  2.9776206790155300e+255  -1.0300832455043553e+242  -2.1125432215560313e+241  -9.7138080417860746e+240  -3.0336495168067750e+242  -4.9619792202981104e+243  -4.8049233733390834e+249  2.8815811864076834e+250  -2.0119918733288537e+246  1.9488987527703471e+249  5.4782737206375766e+254  2.5329840940791149e+240  -1.3260576342305799e+241  5.1921826876726525e+241  3.2964483713488135e+240  -2.5019565630157977e+247  4.1535151937945164e+247  -8.2882817668010764e+248  -1.6246284867530292e+245  -3.9647864444767125e+249  2.2338490248181318e+252  9.2384051740665518e+246  5.0955179466572291e+250  2.0810323909165213e+240  3.3400103175735149e+243  -8.1022586922330834e+252  1.1143355288733699e+246  2.0789114231946899e+243  -2.9625495371486819e+244  5.2859227368473602e+240  6.1958002907572750e+239  1.6309333193410574e+251  1.2861608565445758e+248  -1.2517972598876706e+254  6.8794832170341370e+249  -1.5695532578555652e+254  1.8862019940433435e+250  -5.3960948312506618e+253  -7.5212821629574679e+246  2.7984161620920233e+250  1.5274000210662342e+246  -8.6888931526980652e+248  6.3159364343794932e+248  2.4960124850660384e+242  4.4132351322952822e+252  -3.9669273060009430e+252  -1.2551293339961188e+243  -5.2295223597427001e+242  2.8249538190915294e+249  -3.5003789255766012e+243  5.7156685513643068e+236  -1.0652511508723739e+240  -1.9164501005569839e+254  6.3001479942262185e+241  2.2366535316718780e+241  1.3459481536441410e+240  -4.9292848018584972e+250  -9.1814495306753675e+244  -2.6909907621846008e+239  1.2325177116835565e+248  -3.3929908857749642e+239  -4.0701419393477665e+245  -4.9160186708073475e+255  -3.4014952091114274e+241  1.4356161480046157e+239  7.8286305447164514e+244  1.1462332960561389e+242  5.3911582195552226e+245  -3.4499876738615203e+246  -1.0253856489436466e+241  -3.4562389680120660e+250  1.5156948944991529e+248  3.1063775650532520e+248  -1.0710964651668571e+252  -8.1705045134856160e+245  1.3727720979925457e+246  -1.3245082913406887e+241  -4.5697173163006494e+251  3.1143291398717294e+247  2.4777359008096057e+239  -7.2328588933059091e+248  -1.6801701686815715e+250  4.8297412803567317e+241  -1.9383590374010583e+241  -2.1588803936142472e+240  6.8861272684817761e+238  3.2096166234570133e+251  1.1604244819096078e+250  -1.6105744260462891e+244  -1.3531339017678192e+255  6.9648021027051095e+243  -1.5977868355030649e+247  -7.0358222190477955e+246  -8.2661415338115277e+239  4.3703968445945323e+241  -1.9321909865134051e+245  2.0913749213907965e+247  -7.0722397163314656e+244  1.6580685656772234e+243  4.8082383455298405e+247  7.8380766484080027e+250  -1.4551980389599184e+244  -3.7046360430858898e+242  -9.5229595281357351e+240  -5.6667857163891849e+258  -1.9547521821189723e+252  -2.1689757189476201e+251  -8.0952650805271736e+252  3.7061597874611738e+257  1.6632362549785947e+243  5.4989755131973297e+255  -5.2041785939713507e+246  1.3674956580697829e+243  1.8448349868675679e+242  -2.3114343082506139e+250  -1.1396323026229511e+252  1.1040689492121191e+245  3.4454352183904608e+238  9.6881529432777027e+250  -1.0372923534837279e+256  -1.8415855324086943e+239  7.1533882056614198e+243  -1.8937620490305660e+239  2.0331717904334136e+239  -1.9138151067796974e+243  -9.7274683897003536e+239  7.5804850204676368e+238  5.4492061780882253e+238  -3.0771388171829280e+243  4.4917898341766032e+248  -2.0485728955049446e+241  -5.4268349001612598e+244  -9.1167474236361756e+250  -2.2313153793922967e+246  -7.9086177214493999e+237  5.2387832610775336e+237  6.3283213694891807e+242  3.6767909373300602e+248  6.5849445505577709e+251  1.9488981453489432e+240  -1.3430593787421918e+253  -2.9566085621869740e+239  1.0814459682036982e+247  -5.6127840899979535e+239  -4.0246263544178118e+243  1.4424113900775274e+238  5.2998160171925499e+247  -3.5357617672802983e+242  1.5351942995648659e+250  -2.2470929018894011e+246  -2.8422090787295752e+253  1.3589103058242080e+239  -1.0325958514461199e+248  3.6590999385570968e+246  2.8744026054924920e+250  -1.2476537446007784e+239  3.0733390065689424e+241  6.5842538482121026e+242  -2.6631180863521368e+255  -4.6262480265472760e+237  -7.0839241135662507e+243  2.6901444233972754e+253  5.2496162524925952e+254  -3.0910210865630305e+243  -1.8962210213717907e+244  -1.6457678410798038e+251  -1.8302702785423646e+247  -4.7546997448369921e+248  -2.5297105569914613e+247  5.7195359090410461e+249  1.7516891479269966e+245  -7.4409190805747945e+246  -8.0428731752768881e+242  2.2859058913810818e+241  -1.5892855724009685e+252  4.5502661710060478e+242  1.3177809564892228e+241  1.8724478604412270e+242  1.1775500239406085e+251  -5.4659574764087546e+249  -1.3288022409115223e+245  1.9325170385404680e+237  -1.1234433573502682e+246  1.2409252605113164e+253  -7.5172006836692544e+243  -1.1465691599813055e+245  7.5637198008524181e+243  6.6981567181769443e+239  -1.1073542869774136e+248  -4.4655733778979371e+251  -4.9345676931628452e+246  3.9885580789751402e+246  2.6993617134818795e+240  -1.2336240285860635e+243  -1.5531439609052745e+238  7.3924392056381093e+242  -1.9554114990735710e+237  2.3182265692419343e+240  -4.9203591695290868e+240  -5.7005074371191177e+240  -1.7218476537797058e+243  2.1850594293735683e+242  -3.2627623311565485e+248  -4.9046987812666804e+245  -3.3178914949423110e+246  -1.6346192274331909e+243  6.8791681138933419e+252  -7.8425181854709691e+250  1.2354471619366077e+247  1.6240934008786839e+248  -4.0393878427591878e+240  2.3753841430562927e+251  -2.9680352402099197e+247  -3.0289748197948835e+240  -1.9329805291908319e+236  5.1699444191566783e+252  -5.3800648102014650e+249  -1.2577533728766091e+249  7.9719942365831608e+247  3.6491971169176387e+255  -4.5125380310539997e+250  1.2711994682568662e+242  -1.6732739034059697e+252  3.2402183114635180e+246  3.0188538016521925e+247  2.9308774640104623e+239  2.3872290605982274e+241  5.3379998728186747e+238  -4.0255389443925349e+245  -7.4116899073261764e+243  2.8052744014430195e+251  -3.5499119627437381e+251  8.8481574369529007e+253  -1.3303396838120669e+243  1.0214401315261240e+240  2.2163950291805426e+238  -7.0226134670853810e+246  -6.9090866744684706e+238  -1.2796473745227576e+253  1.2120417065825287e+251  -1.8633331865691907e+244  -6.1012113511616624e+239  5.6800721297538901e+242  4.5444049353656867e+256  1.1368525471731005e+252  2.4639972284930568e+249  -3.1731641089500657e+250  -1.0952006294645888e+249  -1.3421779679394118e+253  -6.7468521247154744e+250  5.9521493802981781e+249  -1.9810292885463148e+247  -5.4358329183402522e+243  4.6183296405887373e+255  -1.3595975525167556e+240  3.7384853305461040e+243  2.8275632305827980e+252  -3.7250151524031620e+252  -2.6512808632052568e+252  -1.9264060952423132e+245  5.2848466831900755e+244  4.0253600339624446e+256  -2.2818562759608733e+237  3.6357759204010190e+253  -2.6197599631438169e+240  -9.4588941418944216e+237  5.4418631606744288e+238  2.3844800505136695e+250  -8.2443216845681539e+249  5.7618526147859952e+254  1.4167351178212419e+255  8.3086696735264761e+248  3.2335311967803789e+243  2.5284733337935099e+245  -2.3750951670231633e+249  -8.7254985125563437e+249  -4.8518752659758723e+244  -1.4033848320216424e+249  9.7368997675762770e+245  2.1932741075541908e+251  2.4791447988409142e+241  1.0590866572967833e+250  -2.3428110676827200e+251  -1.6716340639938472e+250  -9.5845377845883473e+241  1.1935721743098367e+242  -3.9841722972011701e+241  1.7122766700564330e+240  1.1856682780122607e+243  2.2936881689034236e+241  -1.2732886944706149e+254  -1.2152452339504825e+239  9.4302311646312400e+238  3.1910371328071157e+240  -1.0452535617340901e+250  1.4043257738860143e+248  -5.6716454735934879e+249  1.0192811008814536e+240  1.7622798759117395e+243  -4.4867802500629642e+246  -1.1652888176823464e+250  1.0216686817071316e+251  1.0392023539508165e+245  9.3946781486794660e+250  -7.0009549453505450e+250  3.9015680327950513e+256  1.1743990488407754e+243  4.7174897261550728e+243  -1.5244664211429393e+250  -2.4822138915073478e+243  4.1094099011995228e+240  8.4641591286324212e+247  -1.1223425657052029e+239  -1.8270741169632536e+243  -9.4779162537354943e+245  -8.7972366260743594e+237  -1.4730721069004211e+243  4.9593833295292664e+245  1.6804563815813214e+238  7.3251359379150457e+241  -1.7465480903282350e+239  4.7879321203535606e+238  7.8260529447367454e+244  2.5135579910359603e+247  -2.2013033998165846e+253  -7.6750463666690789e+240  -1.1753128391726871e+251  9.5016878512967977e+254  1.8415685668747027e+243  -1.1869744284786936e+237  4.1932465025245072e+247  -4.5092281632931193e+242  6.5560909943147035e+255  -4.7794130216063938e+241  -2.3275220554531899e+243  -6.6301402523176771e+250  1.0525416629633594e+241  -5.0353748697332912e+236  3.9535810000513830e+239  3.3079810800737097e+244  -3.1753990736438344e+250  3.4761165784434014e+248  1.0711630752986742e+245  9.5667245206829783e+244  -1.5534899152876620e+254  3.3676770708405744e+245  5.6721254551689752e+237  6.9023537102334446e+247  3.3689230517191298e+239  1.0352595382039582e+241  -3.7166290198818393e+248  7.2588085747559803e+240  2.6780172491706866e+257  4.4003787553968808e+238  9.5897405382210236e+241  -2.7030044023003868e+238  3.5684543924331523e+248  -9.1799988629406297e+246  -1.1742742447703725e+245  6.2577875573412558e+247  5.3550659249380275e+237  5.4236989223871663e+240  2.1513932332857550e+251  -2.7354222350327596e+245  -5.4965567894708797e+248  -2.3426270293180030e+244  -1.1807971078446534e+238  -4.2760977319371081e+238  4.3631261588472313e+250  -4.1922480080633350e+238  -2.0271800178728503e+250  3.5574132834152382e+243  2.1291605720124286e+253  1.3818170814431055e+244  -2.7825859773293748e+239  1.1826323628796397e+242  2.6150671951310607e+241  3.5787073112785131e+241  -6.7809408771553265e+241  1.1080978732515211e+252  -3.5186882900968913e+254  2.3713261983312852e+256  9.3410402211172059e+251  -1.5702275754963244e+240  3.6527773776134900e+254  -6.1413433727669752e+251  4.1988090412876335e+242  -1.3098852997297121e+238  1.0091990565485765e+238  -3.0039342382656157e+246  5.1681647056983857e+245  -1.1679007679650516e+245  -9.0451375890602736e+252  -6.5998218895202603e+242  1.0856862272013574e+239  3.1226729977914377e+237  -9.2801974830207826e+239  2.0360301831862776e+247  -3.5333172943535527e+241  1.2968386327634817e+246  4.4160195323058039e+240  2.9317667296498147e+240  -1.6006629182396703e+241  4.3540124127224086e+247  1.0285166134071104e+242  -4.0679835504913022e+248  -2.1794844717875069e+249  8.6847691663841344e+249  -1.7845115094963779e+246  -7.9059163155203817e+247  1.7421310498858502e+250  9.9044274070994794e+238  1.8727278345551158e+254  2.7144986561304875e+241  -1.3121314320715279e+255  6.2465990959419102e+245  4.8247326264682477e+251  1.5725173302068228e+250  9.1018668672003702e+257  1.4797301645099902e+242  1.3459015141163863e+239  -6.7956235463614580e+245  -7.8359255592964854e+251  5.3490565188890121e+243  -1.6650662497911185e+249  -3.0084569467049709e+250  1.7349988443027055e+240  -4.2162497991679905e+245  -3.1459278869913425e+239  -4.1791553102320716e+256  -4.6309544824585340e+256  6.6332247829849706e+254  2.2513120947393231e+244  7.0775569384488103e+241  1.3515640734147807e+242  1.6280937144369663e+244  7.5592057852207640e+247  -8.0392472203345260e+249  9.5482414953316759e+241  3.0641978914116980e+248  -6.7042043229651323e+245  6.7459969117593555e+243  -2.0260247627205234e+255  -2.1178674257867258e+245  -5.9276849713042024e+249  -9.0995043658554753e+245  -1.1987376657770046e+248  -2.5032950065193049e+244  2.3878887903702655e+244  -8.9584023904116429e+238  1.4855248489273517e+246  1.3096653656065167e+239  1