<?xml version="1.0"?>
<VTKFile type="UnstructuredGrid"  version="0.1"  >
<UnstructuredGrid>
<Piece  NumberOfPoints="20054" NumberOfCells="39478">
<Points>
<DataArray  type="Float64"  NumberOfComponents="3"  format="ascii">1 0 0  0.9997998037428526 0.02000880895389431 0  0.9991992951284931 0.04000960653046352 0  0.9981987145960756 0.05999438456007805 0  0.9967984627705549 0.07995514128721501 0  0.9949991003022806 0.09988388457430118 0  0.9928013476425149 0.1197726351017051 0  0.9902060847549715 0.139613429562597 0  0.987214350763483 0.1593983238513969 0  0.9838273435359444 0.1791193962445356 0  0.9800464192046954 0.198768750572253 0  0.9758730916235354 0.2183385193801655 0  0.9713090317615876 0.237820867079336 0  0.9663560670342555 0.2572079930835849 0  0.9610161805715396 0.2764921349327862 0  0.9552915104240066 0.2956655714008991 0  0.9491843487067304 0.3147206255874884 0  0.9426971406815462 0.3336496679914983 0  0.9358324837779861 0.3524451195660473 0  0.9285931265532873 0.3710994547530225 0  0.9209819675918909 0.3896052044962556 0  0.9130020543448703 0.4079549592320781 0  0.9046565819097542 0.4261413718560547 0  0.8959488917512338 0.4441571606647087 0  0.8868824703632656 0.4619951122710622 0  0.8774609478731046 0.4796480844928215 0  0.8676880965878291 0.4971090092120542 0  0.8575678294839372 0.5143708952052096 0  0.8471041986406199 0.5314268309423539 0  0.8363013936173391 0.5482699873544935 0  0.8251637397763597 0.5648936205678837 0  0.8136956965509062 0.5812910746042258 0  0.8019018556596399 0.5974557840456699 0  0.7897869392681683 0.6133812766635599 0  0.777355798098326 0.6290611760098652 0  0.7646134094859813 0.6444892039702628 0  0.7515648753881492 0.6596591832778468 0  0.7382154203402046 0.6745650399864606 0  0.7245703893640189 0.6892008059026586 0  0.7106352458278521 0.7035606209753273 0  0.6964155692588616 0.7176387356420051 0  0.6819170531091018 0.7314295131309636 0  0.6671455024759069 0.7449274317181303 0  0.6521068317775753 0.7581270869379442 0  0.6368070623852795 0.7710231937472638 0  0.6212523202121545 0.7836105886414595 0  0.6054488332605282 0.795884231721841 0  0.5894029291282759 0.8078392087135958 0  0.5731210324752972 0.8194707329334278 0  0.5566096624511305 0.8307741472061095 0  0.5398754300847343 0.8417449257291802 0  0.5229250356374803 0.8523786758850435 0  0.5057652659204196 0.8626711399997378 0  0.4884029915768944 0.8726181970476778 0  0.4708451643315825 0.8822158643016828 0  0.45309881420708 0.8914602989276292 0  0.4351710467091336 0.9003477995230937 0  0.4170690399816468 0.9088748075993677 0  0.398800041932607 0.9170379090062476 0  0.3803713673320772 0.9248338352990368 0  0.3617903948834157 0.9322594650472057 0  0.3430645642688987 0.9393118250841893 0  0.3242013731709288 0.9459880916978206 0  0.3052083742700172 0.952285591760924 0  0.2860931722207478 0.9582018038016155 0  0.2668634206069304 0.963734359012881 0  0.2475268188771628 0.9688810422010291 0  0.2280911092620296 0.9736397926726377 0  0.2085640736741707 0.9780087050596407 0  0.1889535305924618 0.9819860300822225 0  0.1692673319315541 0.9855701752492174 0  0.1495133598980264 0.9887597054957302 0  0.1296995238344084 0.9915533437577263 0  0.1098337570523395 0.9939499714833577 0  0.08992401365612977 0.9959486290808237 0  0.06997826535799723 0.9975485163025836 0  0.05000449828625179 0.9987489925657699 0  0.03001070978771124 0.9995495772086734 0  0.01000490522562346 0.9999499496831961 0  -0.01000490522562333 0.9999499496831961 0  -0.03001070978771133 0.9995495772086734 0  -0.05000449828625144 0.9987489925657699 0  -0.06997826535799688 0.9975485163025836 0  -0.08992401365612987 0.9959486290808237 0  -0.1098337570523394 0.9939499714833577 0  -0.1296995238344082 0.9915533437577263 0  -0.1495133598980262 0.9887597054957303 0  -0.1692673319315537 0.9855701752492174 0  -0.1889535305924614 0.9819860300822226 0  -0.2085640736741705 0.9780087050596407 0  -0.2280911092620295 0.9736397926726377 0  -0.2475268188771627 0.9688810422010291 0  -0.2668634206069302 0.9637343590128811 0  -0.2860931722207475 0.9582018038016156 0  -0.3052083742700173 0.9522855917609239 0  -0.3242013731709289 0.9459880916978205 0  -0.3430645642688986 0.9393118250841894 0  -0.3617903948834154 0.9322594650472058 0  -0.380371367332077 0.924833835299037 0  -0.3988000419326071 0.9170379090062476 0  -0.4170690399816465 0.9088748075993678 0  -0.4351710467091335 0.9003477995230939 0  -0.4530988142070799 0.8914602989276292 0  -0.4708451643315824 0.8822158643016829 0  -0.4884029915768945 0.8726181970476778 0  -0.5057652659204197 0.8626711399997378 0  -0.5229250356374801 0.8523786758850437 0  -0.5398754300847342 0.8417449257291804 0  -0.5566096624511303 0.8307741472061098 0  -0.5731210324752971 0.8194707329334279 0  -0.589402929128276 0.8078392087135957 0  -0.6054488332605281 0.7958842317218411 0  -0.6212523202121542 0.7836105886414597 0  -0.6368070623852793 0.7710231937472639 0  -0.652106831777575 0.7581270869379444 0  -0.6671455024759069 0.7449274317181304 0  -0.6819170531091018 0.7314295131309636 0  -0.6964155692588616 0.7176387356420052 0  -0.7106352458278521 0.7035606209753273 0  -0.7245703893640187 0.6892008059026588 0  -0.7382154203402043 0.6745650399864608 0  -0.751564875388149 0.6596591832778469 0  -0.7646134094859813 0.6444892039702628 0  -0.7773557980983258 0.6290611760098654 0  -0.7897869392681683 0.6133812766635599 0  -0.8019018556596398 0.59745578404567 0  -0.8136956965509062 0.5812910746042258 0  -0.8251637397763595 0.5648936205678839 0  -0.836301393617339 0.5482699873544935 0  -0.8471041986406197 0.5314268309423542 0  -0.8575678294839372 0.5143708952052097 0  -0.8676880965878292 0.497109009212054 0  -0.8774609478731045 0.4796480844928216 0  -0.8868824703632656 0.4619951122710621 0  -0.8959488917512338 0.4441571606647088 0  -0.904656581909754 0.426141371856055 0  -0.9130020543448703 0.4079549592320783 0  -0.920981967591891 0.3896052044962555 0  -0.9285931265532872 0.3710994547530226 0  -0.9358324837779861 0.3524451195660473 0  -0.9426971406815462 0.3336496679914984 0  -0.9491843487067303 0.3147206255874888 0  -0.9552915104240065 0.2956655714008993 0  -0.9610161805715396 0.2764921349327862 0  -0.9663560670342555 0.2572079930835851 0  -0.9713090317615876 0.2378208670793361 0  -0.9758730916235353 0.2183385193801658 0  -0.9800464192046954 0.198768750572253 0  -0.9838273435359444 0.1791193962445354 0  -0.987214350763483 0.159398323851397 0  -0.9902060847549714 0.1396134295625972 0  -0.9928013476425149 0.1197726351017052 0  -0.9949991003022804 0.09988388457430147 0  -0.9967984627705549 0.07995514128721509 0  -0.9981987145960756 0.05999438456007793 0  -0.9991992951284931 0.04000960653046362 0  -0.9997998037428526 0.02000880895389464 0  -1 1.224646799147353e-16 0  -0.9997998037428526 -0.0200088089538944 0  -0.9991992951284931 -0.04000960653046338 0  -0.9981987145960756 -0.05999438456007812 0  -0.9967984627705549 -0.07995514128721484 0  -0.9949991003022806 -0.09988388457430078 0  -0.9928013476425149 -0.1197726351017049 0  -0.9902060847549715 -0.1396134295625965 0  -0.9872143507634831 -0.1593983238513963 0  -0.9838273435359444 -0.1791193962445356 0  -0.9800464192046953 -0.1987687505722532 0  -0.9758730916235354 -0.2183385193801655 0  -0.9713090317615876 -0.2378208670793363 0  -0.9663560670342556 -0.2572079930835848 0  -0.9610161805715396 -0.276492134932786 0  -0.9552915104240066 -0.2956655714008991 0  -0.9491843487067305 -0.3147206255874881 0  -0.9426971406815464 -0.3336496679914978 0  -0.9358324837779862 -0.3524451195660471 0  -0.9285931265532875 -0.371099454753022 0  -0.9209819675918909 -0.3896052044962557 0  -0.9130020543448704 -0.407954959232078 0  -0.9046565819097541 -0.4261413718560548 0  -0.8959488917512338 -0.4441571606647086 0  -0.8868824703632655 -0.4619951122710623 0  -0.8774609478731046 -0.4796480844928214 0  -0.8676880965878293 -0.4971090092120538 0  -0.8575678294839373 -0.5143708952052095 0  -0.84710419864062 -0.5314268309423537 0  -0.8363013936173395 -0.5482699873544929 0  -0.8251637397763596 -0.5648936205678838 0  -0.8136956965509061 -0.5812910746042259 0  -0.8019018556596399 -0.5974557840456699 0  -0.7897869392681682 -0.61338127666356 0  -0.777355798098326 -0.6290611760098652 0  -0.7646134094859816 -0.6444892039702625 0  -0.7515648753881492 -0.6596591832778468 0  -0.7382154203402048 -0.6745650399864603 0  -0.7245703893640192 -0.6892008059026583 0  -0.7106352458278522 -0.7035606209753272 0  -0.6964155692588621 -0.7176387356420046 0  -0.6819170531091017 -0.7314295131309637 0  -0.667145502475907 -0.7449274317181303 0  -0.6521068317775756 -0.758127086937944 0  -0.6368070623852792 -0.7710231937472641 0  -0.6212523202121544 -0.7836105886414596 0  -0.6054488332605283 -0.795884231721841 0  -0.5894029291282762 -0.8078392087135956 0  -0.5731210324752977 -0.8194707329334274 0  -0.5566096624511304 -0.8307741472061095 0  -0.5398754300847344 -0.8417449257291802 0  -0.5229250356374798 -0.8523786758850437 0  -0.5057652659204195 -0.8626711399997379 0  -0.4884029915768943 -0.872618197047678 0  -0.4708451643315825 -0.8822158643016828 0  -0.4530988142070805 -0.8914602989276289 0  -0.4351710467091333 -0.900347799523094 0  -0.4170690399816467 -0.9088748075993677 0  -0.3988000419326073 -0.9170379090062475 0  -0.3803713673320777 -0.9248338352990366 0  -0.3617903948834162 -0.9322594650472055 0  -0.3430645642688988 -0.9393118250841893 0  -0.3242013731709283 -0.9459880916978207 0  -0.3052083742700169 -0.9522855917609241 0  -0.2860931722207477 -0.9582018038016155 0  -0.2668634206069305 -0.963734359012881 0  -0.2475268188771631 -0.968881042201029 0  -0.2280911092620301 -0.9736397926726376 0  -0.2085640736741706 -0.9780087050596407 0  -0.1889535305924619 -0.9819860300822225 0  -0.1692673319315544 -0.9855701752492173 0  -0.1495133598980269 -0.9887597054957302 0  -0.1296995238344092 -0.9915533437577262 0  -0.1098337570523396 -0.9939499714833577 0  -0.08992401365612945 -0.9959486290808237 0  -0.06997826535799691 -0.9975485163025836 0  -0.05000449828625168 -0.9987489925657699 0  -0.030010709787
[...]
<PointData  Scalars="Displacement"> 
<DataArray  type="Float64"  Name="Displacement"  format="ascii">0.0000000000000000e+00  0.0000000000000000e+00  0.0000000000000000e+00  0.0000000000000000e+00  0.0000000000000000e+00  0.0000000000000000e+00  0.0000000000000000e+00  0.0000000000000000e+00  0.0000000000000000e+00  0.0000000000000000e+00  0.0000000000000000e+00  0.0000000000000000e+00  0.0000000000000000e+00  0.0000000000000000e+00  0.0000000000000000e+00  0.0000000000000000e+00  0.0000000000000000e+00  0.0000000000000000e+00  0.0000000000000000e+00  0.0000000000000000e+00  0.0000000000000000e+00  0.0000000000000000e+00  0.0000000000000000e+00  0.0000000000000000e+00  0.0000000000000000e+00  0.0000000000000000e+00  0.0000000000000000e+00  0.0000000000000000e+00  0.0000000000000000e+00  0.0000000000000000e+00  0.0000000000000000e+00  0.0000000000000000e+00  0.0000000000000000e+00  0.0000000000000000e+00  0.0000000000000000e+00  0.0000000000000000e+00  0.0000000000000000e+00  0.0000000000000000e+00  0.0000000000000000e+00  0.0000000000000000e+00  0.0000000000000000e+00  0.0000000000000000e+00  0.0000000000000000e+00  0.0000000000000000e+00  0.0000000000000000e+00  0.0000000000000000e+00  0.0000000000000000e+00  0.0000000000000000e+00  0.0000000000000000e+00  0.0000000000000000e+00  0.0000000000000000e+00  0.0000000000000000e+00  0.0000000000000000e+00  0.0000000000000000e+00  0.0000000000000000e+00  0.0000000000000000e+00  0.0000000000000000e+00  0.0000000000000000e+00  0.0000000000000000e+00  0.0000000000000000e+00  0.0000000000000000e+00  0.0000000000000000e+00  0.0000000000000000e+00  0.0000000000000000e+00  0.0000000000000000e+00  0.0000000000000000e+00  0.0000000000000000e+00  0.0000000000000000e+00  0.0000000000000000e+00  0.0000000000000000e+00  0.0000000000000000e+00  0.0000000000000000e+00  0.0000000000000000e+00  0.0000000000000000e+00  0.0000000000000000e+00  0.0000000000000000e+00  0.0000000000000000e+00  0.0000000000000000e+00  0.0000000000000000e+00  0.0000000000000000e+00  0.0000000000000000e+00  0.0000000000000000e+00  0.0000000000000000e+00  0.0000000000000000e+00  0.0000000000000000e+00  0.0000000000000000e+00  0.0000000000000000e+00  0.0000000000000000e+00  0.0000000000000000e+00  0.0000000000000000e+00  0.0000000000000000e+00  0.0000000000000000e+00  0.0000000000000000e+00  0.0000000000000000e+00  0.0000000000000000e+00  0.0000000000000000e+00  0.0000000000000000e+00  0.0000000000000000e+00  0.0000000000000000e+00  0.0000000000000000e+00  0.0000000000000000e+00  0.0000000000000000e+00  0.0000000000000000e+00  0.0000000000000000e+00  0.0000000000000000e+00  0.0000000000000000e+00  0.0000000000000000e+00  0.0000000000000000e+00  0.0000000000000000e+00  0.0000000000000000e+00  0.0000000000000000e+00  0.0000000000000000e+00  0.0000000000000000e+00  0.0000000000000000e+00  0.0000000000000000e+00  0.0000000000000000e+00  0.0000000000000000e+00  0.0000000000000000e+00  0.0000000000000000e+00  0.0000000000000000e+00  0.0000000000000000e+00  0.0000000000000000e+00  0.0000000000000000e+00  0.0000000000000000e+00  0.0000000000000000e+00  0.0000000000000000e+00  0.0000000000000000e+00  0.0000000000000000e+00  0.0000000000000000e+00  0.0000000000000000e+00  0.0000000000000000e+00  0.0000000000000000e+00  0.0000000000000000e+00  0.0000000000000000e+00  0.0000000000000000e+00  0.0000000000000000e+00  0.0000000000000000e+00  0.0000000000000000e+00  0.0000000000000000e+00  0.0000000000000000e+00  0.0000000000000000e+00  0.0000000000000000e+00  0.0000000000000000e+00  0.0000000000000000e+00  0.0000000000000000e+00  0.0000000000000000e+00  0.0000000000000000e+00  0.0000000000000000e+00  0.0000000000000000e+00  0.0000000000000000e+00  0.0000000000000000e+00  0.0000000000000000e+00  0.0000000000000000e+00  0.0000000000000000e+00  0.0000000000000000e+00  0.0000000000000000e+00  0.0000000000000000e+00  0.0000000000000000e+00  0.0000000000000000e+00  0.0000000000000000e+00  0.0000000000000000e+00  0.0000000000000000e+00  0.0000000000000000e+00  0.0000000000000000e+00  0.0000000000000000e+00  0.0000000000000000e+00  0.0000000000000000e+00  0.0000000000000000e+00  0.0000000000000000e+00  0.0000000000000000e+00  0.0000000000000000e+00  0.0000000000000000e+00  0.0000000000000000e+00  0.0000000000000000e+00  0.0000000000000000e+00  0.0000000000000000e+00  0.0000000000000000e+00  0.0000000000000000e+00  0.0000000000000000e+00  0.0000000000000000e+00  0.0000000000000000e+00  0.0000000000000000e+00  0.0000000000000000e+00  0.0000000000000000e+00  0.0000000000000000e+00  0.0000000000000000e+00  0.0000000000000000e+00  0.0000000000000000e+00  0.0000000000000000e+00  0.0000000000000000e+00  0.0000000000000000e+00  0.0000000000000000e+00  0.0000000000000000e+00  0.0000000000000000e+00  0.0000000000000000e+00  0.0000000000000000e+00  0.0000000000000000e+00  0.0000000000000000e+00  0.0000000000000000e+00  0.0000000000000000e+00  0.0000000000000000e+00  0.0000000000000000e+00  0.0000000000000000e+00  0.0000000000000000e+00  0.0000000000000000e+00  0.0000000000000000e+00  0.0000000000000000e+00  0.0000000000000000e+00  0.0000000000000000e+00  0.0000000000000000e+00  0.0000000000000000e+00  0.0000000000000000e+00  0.0000000000000000e+00  0.0000000000000000e+00  0.0000000000000000e+00  0.0000000000000000e+00  0.0000000000000000e+00  0.0000000000000000e+00  0.0000000000000000e+00  0.0000000000000000e+00  0.0000000000000000e+00  0.0000000000000000e+00  0.0000000000000000e+00  0.0000000000000000e+00  0.0000000000000000e+00  0.0000000000000000e+00  0.0000000000000000e+00  0.0000000000000000e+00  0.0000000000000000e+00  0.0000000000000000e+00  0.0000000000000000e+00  0.0000000000000000e+00  0.0000000000000000e+00  0.0000000000000000e+00  0.0000000000000000e+00  0.0000000000000000e+00  0.0000000000000000e+00  0.0000000000000000e+00  0.0000000000000000e+00  0.0000000000000000e+00  0.0000000000000000e+00  0.0000000000000000e+00  0.0000000000000000e+00  0.0000000000000000e+00  0.0000000000000000e+00  0.0000000000000000e+00  0.0000000000000000e+00  0.0000000000000000e+00  0.0000000000000000e+00  0.0000000000000000e+00  0.0000000000000000e+00  0.0000000000000000e+00  0.0000000000000000e+00  0.0000000000000000e+00  0.0000000000000000e+00  0.0000000000000000e+00  0.0000000000000000e+00  0.0000000000000000e+00  0.0000000000000000e+00  0.0000000000000000e+00  0.0000000000000000e+00  0.0000000000000000e+00  0.0000000000000000e+00  0.0000000000000000e+00  0.0000000000000000e+00  0.0000000000000000e+00  0.0000000000000000e+00  0.0000000000000000e+00  0.0000000000000000e+00  0.0000000000000000e+00  0.0000000000000000e+00  0.0000000000000000e+00  0.0000000000000000e+00  0.0000000000000000e+00  0.0000000000000000e+00  0.0000000000000000e+00  0.0000000000000000e+00  0.0000000000000000e+00  0.0000000000000000e+00  0.0000000000000000e+00  0.0000000000000000e+00  0.0000000000000000e+00  0.0000000000000000e+00  0.0000000000000000e+00  0.0000000000000000e+00  0.0000000000000000e+00  0.0000000000000000e+00  0.0000000000000000e+00  0.0000000000000000e+00  0.0000000000000000e+00  0.0000000000000000e+00  0.0000000000000000e+00  0.0000000000000000e+00  0.0000000000000000e+00  0.0000000000000000e+00  0.0000000000000000e+00  0.0000000000000000e+00  0.0000000000000000e+00  0.0000000000000000e+00  0.0000000000000000e+00  0.0000000000000000e+00  0.0000000000000000e+00  0.0000000000000000e+00  0.0000000000000000e+00  0.0000000000000000e+00  0.0000000000000000e+00  0.0000000000000000e+00  0.0000000000000000e+00  0.0000000000000000e+00  0.0000000000000000e+00  0.0000000000000000e+00  0.0000000000000000e+00  0.0000000000000000e+00  0.0000000000000000e+00  5.2714916586608877e-03  1.0659318035930836e-02  1.0841148157967339e-02  1.0906017128753796e-02  1.0760474557974298e-02  1.0949187923433693e-02  1.3596282804867471e-02  1.7967088143656468e-02  1.8058053092053505e-02  2.0676166302179718e-02  2.1131305097922121e-02  7.2360728033580516e-03  2.7675430989622097e-02  2.7509174537963123e-02  6.7100449536390385e-03  6.5550255018947427e-03  3.1997059365024547e-02  3.1220917637486762e-02  3.2745909580289702e-02  3.3030545074718559e-02  3.6168241973704204e-02  3.6874718190805462e-02  3.4916423181332701e-02  8.3807456497702534e-03  8.1055134626954652e-03  6.0122101447101532e-03  3.0612893764836072e-02  6.3354780739778224e-02  5.4886201038110163e-02  1.0072733534022986e-02  5.6633406386754258e-02  6.8332838805990606e-03  6.3530714885175685e-03  1.0514361877554567e-02  7.5706782822048485e-02  1.0559093339236444e-01  1.1014860712317455e-01  1.1356463967811928e-01  1.1392055229825730e-01  1.3117910203887003e-02  1.3221022804680790e-02  1.3414051765876785e-02  1.3788851019869326e-02  5.7788829889817445e-03  1.2238113685574604e-01  1.2647489224807820e-01  1.3132306980822811e-01  1.3134249403502016e-01  1.4500316582698116e-02  1.3986585949062453e-02  2.4097982584501406e-02  1.2825733698494209e-02  1.3638033733685139e-02  9.6983896661677147e-03  1.4417295166306340e-01  5.8536085319396544e-03  1.2830852757616990e-01  1.4424625632033766e-01  7.1374788599682755e-03  1.4635730885008019e-01  1.4547850588985506e-01  2.0346013358526746e-02  1.4726599144143854e-01  1.4349706841026161e-01  7.3487235017407780e-03  6.1094107044359853e-03  8.0262396284310547e-03  9.7255194805188731e-03  8.2227883973973598e-03  5.5930482249655416e-03  7.2171766946871859e-03  1.4283176610437171e-02  1.7668067020060147e-02  1.6861775414219977e-02  1.6803025726069211e-02  7.5397985357735717e-03  1.4866994581954976e-01  8.2469772202502026e-03  7.5178795951257168e-03  1.9223985486431571e-02  1.5187429191890284e-01  8.5294536533601275e-03  1.5305874102538819e-01  1.5242589361517087e-01  1.5387574858307662e-01  5.7815118286621472e-03  1.5335579832190668e-01  1.5391647536691366e-01  1.5376929683659740e-01  8.2915910579842815e-03  2.3570285124557562e-02  1.5456984513022148e-01  1.7688011284050696e-02  1.5433692646901503e-01  2.3203338128582475e-02  6.0936127799437927e-03  1.5324702939670623e-01  1.5459420834897283e-01  2.5122913329907282e-02  2.8304872106420104e-02  1.8373155016195269e-02  2.5015582298796697e-02  1.5446890245086267e-01  9.5020348658712266e-03  1.2226658801834643e-02  1.2382843969561708e-02  9.2674622746562602e-03  2.7945909461399843e-02  2.6253759869824561e-02  1.5329596867008521e-01  9.5132811133705770e-03  1.5360055458240826e-01  1.5438395826193399e-01  1.4680682422196466e-02  1.5649853219798025e-02  2.8339591292517816e-02  1.5266290193792881e-01  1.5487011238544207e-01  1.5487568324740333e-01  5.9936429804738987e-03  9.5353651735424570e-03  4.5154406405392533e-02  7.1153219995471195e-03  1.4542974556470467e-01  3.0685830253958594e-02  2.1100823864403297e-02  1.5462409902580102e-01  1.5147661532698542e-01  3.1531710566282296e-02  3.1121204388098213e-02  2.0767739943296105e-02  3.0205200043430865e-02  1.7644694337470391e-02  9.9848527709109954e-03  1.4537594130349964e-02  2.8168923763835646e-02  1.5388913753458000e-01  6.6258143403813462e-03  8.0440858209109047e-03  6.9229810627551578e-03  5.5810128986546834e-03  6.9380132557598359e-03  6.0709457967413748e-02  9.1622132295780707e-03  1.4787688660479645e-02  5.9556313055747878e-02  5.3252319741913932e-02  6.6839522086423039e-03  5.7840739088137732e-03  1.8510668277577389e-02  1.4659099931872283e-01  1.4897926895346369e-02  8.3553297068135329e-03  4.2181240564278646e-02  4.1402020325122905e-02  1.4356794958988722e-01  1.4398248166891423e-01  5.2087124517332523e-02  1.4813546252134158e-01  1.4463879884974840e-01  1.4479966485799017e-01  5.7372441420484657e-02  1.9107948313555986e-02  1.4848209719352198e-01  9.6297362089242292e-02  1.1323520698305773e-02  4.1064720414426582e-02  1.5438645064574211e-01  1.4310067934267165e-01  5.9890795627587562e-02  1.3628253545593447e-02  5.3830780936547579e-03  5.7814618569302048e-02  8.1908992115588795e-03  1.4094203060044136e-01  9.6932834502624701e-03  1.3949729153912241e-01  3.4801745893447360e-02  1.4151481413680631e-01  1.0631031997492961e-02  6.9184607232497655e-02  1.1704206032453843e-02  1.4059265222394320e-02  6.2308391676744101e-03  1.4715067948632932e-01  1.2755999947724396e-02  1.8103423167114250e-02  1.0726576064468587e-02  1.4188615749688963e-01  1.1839995052310558e-01  1.4376922057826794e-01  5.5396938188142543e-03  1.3719750740406114e-01  1.4183763812445704e-01  1.1419559244313851e-02  7.3485377813018960e-03  3.8101082365843260e-02  7.6976288495004111e-02  1.1013531154069615e-02  1.8920415479276566e-02  1.5407149253869728e-02  1.3340728898960810e-02  1.1102551014856439e-02  1.8280899965400783e-02  1.5479349122462325e-02  7.7857915681647336e-02  8.1643764196577123e-02  6.2563489897335756e-03  1.5297462649792651e-01  8.1840275431048728e-02  3.2729081298655538e-02  5.9033700065667877e-03  5.3698336309916800e-03  1.3770020390263338e-01  1.3658557884222802e-01  5.5803488908559316e-02  1.0265774294275987e-02  1.4069956402768852e-01  1.8270119308826677e-02  2.0577999208024597e-02  1.4060943471420234e-01  2.4628420603394399e-02  8.7450704041821675e-03  1.8107618566588039e-02  2.0171637284603441e-02  1.4120385442904701e-01  2.7967035010474435e-02  1.3086181513366016e-01  2.0164414068759125e-02  1.3509867532461378e-01  1.5210449404479451e-01  1.4244460592616601e-01  1.3095648039440874e-01  1.2742721834087406e-01  1.3406099353965376e-01  9.3471872425433707e-03  1.4624136420351118e-02  1.0614721128108465e-01  1.0144353602784019e-01  6.6550271890700409e-03  7.1449569406805465e-03  1.8290802460609233e-02  1.7355001460105289e-02  1.5220090124337962e-01  1.0958163092508173e-02  1.3059601669256368e-01  1.3113921927580841e-01  1.3009458616780475e-01  8.0987145972022685e-03  1.0416451387159003e-02  1.3339642036789157e-02  1.2989357303620285e-02  6.7554697648177699e-03  5.3656973368540464e-03  1.1777655452383883e-01  8.3797655943484151e-03  5.1567513558358147e-02  1.2058446326058049e-02  1.4864900048132243e-01  1.2789791219902560e-01  1.4917804732471585e-01  2.7671720265750151e-02  1.0188117219851338e-01  1.4112726448763867e-02  1.0213890056149578e-02  8.4393852159310931e-03  1.2696114172599351e-01  1.5383562863720862e-01  1.4906710546193230e-01  1.4137947257017183e-02  1.2430290739071521e-01  8.1084320510247405e-03  9.7655625438183534e-03  3.6537751429825856e-02  7.9469667549680698e-02  2.7658659827012693e-02  7.0992541117912570e-03  7.1456544032749607e-03  8.3229724500257646e-03  7.6645748251825034e-03  6.7664872882386090e-03  5.9166750605063401e-03  6.0338327869359689e-03  1.9572186852661114e-02  2.7207470563263319e-02  3.1991557642493874e-02  7.1419041630016861e-03  1.3124562753509225e-01  9.8163498830277404e-02  8.9061471933654345e-03  5.7803633099344906e-03  9.5643630890919224e-03  1.8696601202956707e-02  1.3229851574441173e-02  6.3136977100679923e-03  1.2155626493966197e-01  1.2895619841758358e-02  1.2441537883695360e-01  1.2565973197069019e-01  1.2876415323172619e-01  5.8300855582119953e-03  5.4397075859087939e-03  7.3408382778528888e-03  6.2364376655953948e-03  2.4454303697975500e-02  1.8096213380394119e-02  2.9908298883821963e-02  1.4388120868244772e-02  1.9846618188935416e-02  1.8201425308258492e-02  1.2595960757837634e-02  1.9442788623242901e-02  7.3380338959154389e-03  3.8770119012314787e-02  5.9577947681206432e-03  6.2761526808217767e-03  1.3881832398673157e-02  2.9896139654805212e-02  2.6531390905670339e-02  1.2222710520923549e-01  6.9609930654625576e-02  5.6933841893846905e-02  1.1859710689875949e-01  7.6615395077433085e-03  1.1881468031005091e-01  1.1724482073337056e-01  1.2923833370695401e-01  8.8366682863547374e-03  8.3493960303965518e-03  6.6902398511567976e-03  1.1835249997896527e-01  2.9751286055152079e-02  1.9104074866917592e-02  1.1192055604319804e-02  7.1437316666204042e-03  3.3050103928253853e-02  1.0936636266709808e-02  7.5102020425421171e-03  6.0766293041344130e-03  2.3809171840789178e-02  8.4713309321639868e-02  1.1106293764656258e-02  1.3744224274744440e-01  1.4493359387597587e-01  2.4027424108086413e-02  1.1959002474330498e-01  8.9690744963446006e-02  5.8132634488495587e-02  1.1756787401207770e-01  2.5218849239022723e-02  2.4217966087603991e-02  1.1562230496735225e-01  1.3929883645417529e-01  1.1344956774032862e-01  1.1477187251239787e-01  1.3840395709858683e-01  1.3143413433836756e-02  5.4470930763379716e-03  1.4178780036781488e-01  5.8878225289286231e-03  5.8110618785739074e-03  3.9392243008131753e-02  1.1667243508379445e-01  1.5587421256907425e-02  1.4276643109066109e-01  7.4708745749150155e-03  1.4265856119625139e-01  2.8024400201343790e-02  5.3450790518420064e-03  9.7428662087434864e-02  1.1231872223543242e-01  1.4326551788427805e-01  9.4018405164280061e-02  8.0257324252538259e-03  9.5315776251501689e-03  2.8106581363236832e-02  1.4079843649266369e-01  5.6527015740836448e-03  1.5960086562699656e-02  1.1265748505899158e-01  1.1510121656341313e-02  1.1083664907086449e-01  1.1421473753602056e-01  1.0704000163038340e-02  1.2385158896057591e-01  6.2676265916240441e-03  1.0863022958011707e-01  9.2584621604794845e-02  1.1225076720472661e-01  8.8063832249860776e-03  1.3935538846262868e-02  2.4563966127220237e-02  1.3646236802083983e-02  1.1210436882625473e-01  1.1391075365923102e-01  8.5197528131402619e-03  1.4181982394129330e-01  1.7002290638726988e-02  3.4990447561221528e-02  1.1134777337382858e-01  1.1133465680833303e-01  1.2962557938856813e-02  1.5043061467244392e-01  9.6904169324829818e-03  3.2979308827054236e-02  1.2614371346106811e-02  1.4500966958500235e-02  1.0902047989871123e-01  1.2573366780078229e-01  9.8509152270809142e-02  1.4874518912694631e-01  1.4843775822539568e-01  9.6540656883214587e-03  8.3011098849321840e-03  6.1021330272575782e-03  8.1021811947647807e-03  1.0589994077157384e-01  7.2836664683942724e-03  1.0840911597770769e-02  1.1989332300309308e-01  1.0541150476371811e-01  1.4367640455102132e-01  1.7748028141822865e-02  2.0719805079404397e-02  3.2009703442089234e-02  8.1976033599674390e-03  3.0321954680245990e-02  1.0544139522462675e-01  1.0436770916303242e-01  1.3060302260717344e-01  2.0072816174928492e-02  1.3986814555777646e-01  3.7659946356400825e-02  1.4803094793324117e-01  1.2965299281025594e-01  1.3105748129462272e-01  1.7530296809075606e-02  1.0321245443801971e-01  1.0827164656001505e-02  1.5496716769436371e-02  1.3550098252107436e-02  1.6081410022556308e-02  1.1394172104617111e-02  9.2495787440980814e-03  1.4934677298288268e-01  9.1992964789428967e-03  4.7963193495766776e-02  5.3946742408474448e-03  1.8310557328527800e-02  1.0902080261822992e-02  1.2239944732528560e-02  8.4131463328411954e-03  1.5145408399305541e-01  1.0551636425707629e-01  1.0753936494203646e-01  6.1765646672815545e-03  2.5051454431282354e-02  1.1303929775305118e-02  1.1303999077661676e-02  1.5433562679348622e-01  1.5144887950529146e-02  1.0413110145637461e-01  5.5769259276941107e-03  7.2152051632414617e-03  1.0353677446349054e-02  3.9441020767929318e-02  1.3089148376185625e-01  1.5017520808298873e-01  3.0817412469275496e-02  2.9717149308061117e-02  1.4003571812193048e-02  1.5359472262097415e-01  1.0554798780214210e-02  1.1165222402702695e-02  9.9555229374326759e-02  6.6728337143352546e-03  2.9274083636092678e-02  1.1153031780025184e-02  2.7549152184932469e-02  1.7739257922844219e-02  1.9603595958937563e-02  4.2052038261885874e-02  9.9338935944758927e-02  1.3752400324016581e-01  1.0120509914342761e-01  1.5324343635911813e-01  1.4634107185654566e-01  7.8475583886205881e-03  7.3925033805154625e-02  1.4443800281743312e-02  4.3413826231364798e-02  9.0418424501983469e-03  1.4039251058761415e-02  7.2349366085901262e-03  1.4573917085794066e-01  9.2654898032774706e-03  1.3678221070562629e-01  9.8021415014591828e-02  1.1089615880714382e-01  1.2072323641143362e-02  1.5454145282723852e-01  1.0161398491707208e-01  1.2674727877025496e-02  1.2941810414767769e-02  1.8038244765449945e-02  4.7078698362276059e-02  1.5361865934740804e-01  4.5985117867398881e-02  3.1564902445855650e-02  1.8754643717753712e-02  1.5404701123856498e-02  1.8376403078936294e-02  1.2628768260712095e-02  7.8836964158965264e-03  3.0766538245625058e-02  1.3