<?xml version="1.0"?>
<VTKFile type="UnstructuredGrid"  version="0.1"  >
<UnstructuredGrid>
<Piece  NumberOfPoints="20054" NumberOfCells="39478">
<Points>
<DataArray  type="Float64"  NumberOfComponents="3"  format="ascii">1 0 0  0.9997998037428526 0.02000880895389431 0  0.9991992951284931 0.04000960653046352 0  0.9981987145960756 0.05999438456007805 0  0.9967984627705549 0.07995514128721501 0  0.9949991003022806 0.09988388457430118 0  0.9928013476425149 0.1197726351017051 0  0.9902060847549715 0.139613429562597 0  0.987214350763483 0.1593983238513969 0  0.9838273435359444 0.1791193962445356 0  0.9800464192046954 0.198768750572253 0  0.9758730916235354 0.2183385193801655 0  0.9713090317615876 0.237820867079336 0  0.9663560670342555 0.2572079930835849 0  0.9610161805715396 0.2764921349327862 0  0.9552915104240066 0.2956655714008991 0  0.9491843487067304 0.3147206255874884 0  0.9426971406815462 0.3336496679914983 0  0.9358324837779861 0.3524451195660473 0  0.9285931265532873 0.3710994547530225 0  0.9209819675918909 0.3896052044962556 0  0.9130020543448703 0.4079549592320781 0  0.9046565819097542 0.4261413718560547 0  0.8959488917512338 0.4441571606647087 0  0.8868824703632656 0.4619951122710622 0  0.8774609478731046 0.4796480844928215 0  0.8676880965878291 0.4971090092120542 0  0.8575678294839372 0.5143708952052096 0  0.8471041986406199 0.5314268309423539 0  0.8363013936173391 0.5482699873544935 0  0.8251637397763597 0.5648936205678837 0  0.8136956965509062 0.5812910746042258 0  0.8019018556596399 0.5974557840456699 0  0.7897869392681683 0.6133812766635599 0  0.777355798098326 0.6290611760098652 0  0.7646134094859813 0.6444892039702628 0  0.7515648753881492 0.6596591832778468 0  0.7382154203402046 0.6745650399864606 0  0.7245703893640189 0.6892008059026586 0  0.7106352458278521 0.7035606209753273 0  0.6964155692588616 0.7176387356420051 0  0.6819170531091018 0.7314295131309636 0  0.6671455024759069 0.7449274317181303 0  0.6521068317775753 0.7581270869379442 0  0.6368070623852795 0.7710231937472638 0  0.6212523202121545 0.7836105886414595 0  0.6054488332605282 0.795884231721841 0  0.5894029291282759 0.8078392087135958 0  0.5731210324752972 0.8194707329334278 0  0.5566096624511305 0.8307741472061095 0  0.5398754300847343 0.8417449257291802 0  0.5229250356374803 0.8523786758850435 0  0.5057652659204196 0.8626711399997378 0  0.4884029915768944 0.8726181970476778 0  0.4708451643315825 0.8822158643016828 0  0.45309881420708 0.8914602989276292 0  0.4351710467091336 0.9003477995230937 0  0.4170690399816468 0.9088748075993677 0  0.398800041932607 0.9170379090062476 0  0.3803713673320772 0.9248338352990368 0  0.3617903948834157 0.9322594650472057 0  0.3430645642688987 0.9393118250841893 0  0.3242013731709288 0.9459880916978206 0  0.3052083742700172 0.952285591760924 0  0.2860931722207478 0.9582018038016155 0  0.2668634206069304 0.963734359012881 0  0.2475268188771628 0.9688810422010291 0  0.2280911092620296 0.9736397926726377 0  0.2085640736741707 0.9780087050596407 0  0.1889535305924618 0.9819860300822225 0  0.1692673319315541 0.9855701752492174 0  0.1495133598980264 0.9887597054957302 0  0.1296995238344084 0.9915533437577263 0  0.1098337570523395 0.9939499714833577 0  0.08992401365612977 0.9959486290808237 0  0.06997826535799723 0.9975485163025836 0  0.05000449828625179 0.9987489925657699 0  0.03001070978771124 0.9995495772086734 0  0.01000490522562346 0.9999499496831961 0  -0.01000490522562333 0.9999499496831961 0  -0.03001070978771133 0.9995495772086734 0  -0.05000449828625144 0.9987489925657699 0  -0.06997826535799688 0.9975485163025836 0  -0.08992401365612987 0.9959486290808237 0  -0.1098337570523394 0.9939499714833577 0  -0.1296995238344082 0.9915533437577263 0  -0.1495133598980262 0.9887597054957303 0  -0.1692673319315537 0.9855701752492174 0  -0.1889535305924614 0.9819860300822226 0  -0.2085640736741705 0.9780087050596407 0  -0.2280911092620295 0.9736397926726377 0  -0.2475268188771627 0.9688810422010291 0  -0.2668634206069302 0.9637343590128811 0  -0.2860931722207475 0.9582018038016156 0  -0.3052083742700173 0.9522855917609239 0  -0.3242013731709289 0.9459880916978205 0  -0.3430645642688986 0.9393118250841894 0  -0.3617903948834154 0.9322594650472058 0  -0.380371367332077 0.924833835299037 0  -0.3988000419326071 0.9170379090062476 0  -0.4170690399816465 0.9088748075993678 0  -0.4351710467091335 0.9003477995230939 0  -0.4530988142070799 0.8914602989276292 0  -0.4708451643315824 0.8822158643016829 0  -0.4884029915768945 0.8726181970476778 0  -0.5057652659204197 0.8626711399997378 0  -0.5229250356374801 0.8523786758850437 0  -0.5398754300847342 0.8417449257291804 0  -0.5566096624511303 0.8307741472061098 0  -0.5731210324752971 0.8194707329334279 0  -0.589402929128276 0.8078392087135957 0  -0.6054488332605281 0.7958842317218411 0  -0.6212523202121542 0.7836105886414597 0  -0.6368070623852793 0.7710231937472639 0  -0.652106831777575 0.7581270869379444 0  -0.6671455024759069 0.7449274317181304 0  -0.6819170531091018 0.7314295131309636 0  -0.6964155692588616 0.7176387356420052 0  -0.7106352458278521 0.7035606209753273 0  -0.7245703893640187 0.6892008059026588 0  -0.7382154203402043 0.6745650399864608 0  -0.751564875388149 0.6596591832778469 0  -0.7646134094859813 0.6444892039702628 0  -0.7773557980983258 0.6290611760098654 0  -0.7897869392681683 0.6133812766635599 0  -0.8019018556596398 0.59745578404567 0  -0.8136956965509062 0.5812910746042258 0  -0.8251637397763595 0.5648936205678839 0  -0.836301393617339 0.5482699873544935 0  -0.8471041986406197 0.5314268309423542 0  -0.8575678294839372 0.5143708952052097 0  -0.8676880965878292 0.497109009212054 0  -0.8774609478731045 0.4796480844928216 0  -0.8868824703632656 0.4619951122710621 0  -0.8959488917512338 0.4441571606647088 0  -0.904656581909754 0.426141371856055 0  -0.9130020543448703 0.4079549592320783 0  -0.920981967591891 0.3896052044962555 0  -0.9285931265532872 0.3710994547530226 0  -0.9358324837779861 0.3524451195660473 0  -0.9426971406815462 0.3336496679914984 0  -0.9491843487067303 0.3147206255874888 0  -0.9552915104240065 0.2956655714008993 0  -0.9610161805715396 0.2764921349327862 0  -0.9663560670342555 0.2572079930835851 0  -0.9713090317615876 0.2378208670793361 0  -0.9758730916235353 0.2183385193801658 0  -0.9800464192046954 0.198768750572253 0  -0.9838273435359444 0.1791193962445354 0  -0.987214350763483 0.159398323851397 0  -0.9902060847549714 0.1396134295625972 0  -0.9928013476425149 0.1197726351017052 0  -0.9949991003022804 0.09988388457430147 0  -0.9967984627705549 0.07995514128721509 0  -0.9981987145960756 0.05999438456007793 0  -0.9991992951284931 0.04000960653046362 0  -0.9997998037428526 0.02000880895389464 0  -1 1.224646799147353e-16 0  -0.9997998037428526 -0.0200088089538944 0  -0.9991992951284931 -0.04000960653046338 0  -0.9981987145960756 -0.05999438456007812 0  -0.9967984627705549 -0.07995514128721484 0  -0.9949991003022806 -0.09988388457430078 0  -0.9928013476425149 -0.1197726351017049 0  -0.9902060847549715 -0.1396134295625965 0  -0.9872143507634831 -0.1593983238513963 0  -0.9838273435359444 -0.1791193962445356 0  -0.9800464192046953 -0.1987687505722532 0  -0.9758730916235354 -0.2183385193801655 0  -0.9713090317615876 -0.2378208670793363 0  -0.9663560670342556 -0.2572079930835848 0  -0.9610161805715396 -0.276492134932786 0  -0.9552915104240066 -0.2956655714008991 0  -0.9491843487067305 -0.3147206255874881 0  -0.9426971406815464 -0.3336496679914978 0  -0.9358324837779862 -0.3524451195660471 0  -0.9285931265532875 -0.371099454753022 0  -0.9209819675918909 -0.3896052044962557 0  -0.9130020543448704 -0.407954959232078 0  -0.9046565819097541 -0.4261413718560548 0  -0.8959488917512338 -0.4441571606647086 0  -0.8868824703632655 -0.4619951122710623 0  -0.8774609478731046 -0.4796480844928214 0  -0.8676880965878293 -0.4971090092120538 0  -0.8575678294839373 -0.5143708952052095 0  -0.84710419864062 -0.5314268309423537 0  -0.8363013936173395 -0.5482699873544929 0  -0.8251637397763596 -0.5648936205678838 0  -0.8136956965509061 -0.5812910746042259 0  -0.8019018556596399 -0.5974557840456699 0  -0.7897869392681682 -0.61338127666356 0  -0.777355798098326 -0.6290611760098652 0  -0.7646134094859816 -0.6444892039702625 0  -0.7515648753881492 -0.6596591832778468 0  -0.7382154203402048 -0.6745650399864603 0  -0.7245703893640192 -0.6892008059026583 0  -0.7106352458278522 -0.7035606209753272 0  -0.6964155692588621 -0.7176387356420046 0  -0.6819170531091017 -0.7314295131309637 0  -0.667145502475907 -0.7449274317181303 0  -0.6521068317775756 -0.758127086937944 0  -0.6368070623852792 -0.7710231937472641 0  -0.6212523202121544 -0.7836105886414596 0  -0.6054488332605283 -0.795884231721841 0  -0.5894029291282762 -0.8078392087135956 0  -0.5731210324752977 -0.8194707329334274 0  -0.5566096624511304 -0.8307741472061095 0  -0.5398754300847344 -0.8417449257291802 0  -0.5229250356374798 -0.8523786758850437 0  -0.5057652659204195 -0.8626711399997379 0  -0.4884029915768943 -0.872618197047678 0  -0.4708451643315825 -0.8822158643016828 0  -0.4530988142070805 -0.8914602989276289 0  -0.4351710467091333 -0.900347799523094 0  -0.4170690399816467 -0.9088748075993677 0  -0.3988000419326073 -0.9170379090062475 0  -0.3803713673320777 -0.9248338352990366 0  -0.3617903948834162 -0.9322594650472055 0  -0.3430645642688988 -0.9393118250841893 0  -0.3242013731709283 -0.9459880916978207 0  -0.3052083742700169 -0.9522855917609241 0  -0.2860931722207477 -0.9582018038016155 0  -0.2668634206069305 -0.963734359012881 0  -0.2475268188771631 -0.968881042201029 0  -0.2280911092620301 -0.9736397926726376 0  -0.2085640736741706 -0.9780087050596407 0  -0.1889535305924619 -0.9819860300822225 0  -0.1692673319315544 -0.9855701752492173 0  -0.1495133598980269 -0.9887597054957302 0  -0.1296995238344092 -0.9915533437577262 0  -0.1098337570523396 -0.9939499714833577 0  -0.08992401365612945 -0.9959486290808237 0  -0.06997826535799691 -0.9975485163025836 0  -0.05000449828625168 -0.9987489925657699 0  -0.030010709787
[...]
<PointData  Scalars="Displacement"> 
<DataArray  type="Float64"  Name="Displacement"  format="ascii">0.0000000000000000e+00  0.0000000000000000e+00  0.0000000000000000e+00  0.0000000000000000e+00  0.0000000000000000e+00  0.0000000000000000e+00  0.0000000000000000e+00  0.0000000000000000e+00  0.0000000000000000e+00  0.0000000000000000e+00  0.0000000000000000e+00  0.0000000000000000e+00  0.0000000000000000e+00  0.0000000000000000e+00  0.0000000000000000e+00  0.0000000000000000e+00  0.0000000000000000e+00  0.0000000000000000e+00  0.0000000000000000e+00  0.0000000000000000e+00  0.0000000000000000e+00  0.0000000000000000e+00  0.0000000000000000e+00  0.0000000000000000e+00  0.0000000000000000e+00  0.0000000000000000e+00  0.0000000000000000e+00  0.0000000000000000e+00  0.0000000000000000e+00  0.0000000000000000e+00  0.0000000000000000e+00  0.0000000000000000e+00  0.0000000000000000e+00  0.0000000000000000e+00  0.0000000000000000e+00  0.0000000000000000e+00  0.0000000000000000e+00  0.0000000000000000e+00  0.0000000000000000e+00  0.0000000000000000e+00  0.0000000000000000e+00  0.0000000000000000e+00  0.0000000000000000e+00  0.0000000000000000e+00  0.0000000000000000e+00  0.0000000000000000e+00  0.0000000000000000e+00  0.0000000000000000e+00  0.0000000000000000e+00  0.0000000000000000e+00  0.0000000000000000e+00  0.0000000000000000e+00  0.0000000000000000e+00  0.0000000000000000e+00  0.0000000000000000e+00  0.0000000000000000e+00  0.0000000000000000e+00  0.0000000000000000e+00  0.0000000000000000e+00  0.0000000000000000e+00  0.0000000000000000e+00  0.0000000000000000e+00  0.0000000000000000e+00  0.0000000000000000e+00  0.0000000000000000e+00  0.0000000000000000e+00  0.0000000000000000e+00  0.0000000000000000e+00  0.0000000000000000e+00  0.0000000000000000e+00  0.0000000000000000e+00  0.0000000000000000e+00  0.0000000000000000e+00  0.0000000000000000e+00  0.0000000000000000e+00  0.0000000000000000e+00  0.0000000000000000e+00  0.0000000000000000e+00  0.0000000000000000e+00  0.0000000000000000e+00  0.0000000000000000e+00  0.0000000000000000e+00  0.0000000000000000e+00  0.0000000000000000e+00  0.0000000000000000e+00  0.0000000000000000e+00  0.0000000000000000e+00  0.0000000000000000e+00  0.0000000000000000e+00  0.0000000000000000e+00  0.0000000000000000e+00  0.0000000000000000e+00  0.0000000000000000e+00  0.0000000000000000e+00  0.0000000000000000e+00  0.0000000000000000e+00  0.0000000000000000e+00  0.0000000000000000e+00  0.0000000000000000e+00  0.0000000000000000e+00  0.0000000000000000e+00  0.0000000000000000e+00  0.0000000000000000e+00  0.0000000000000000e+00  0.0000000000000000e+00  0.0000000000000000e+00  0.0000000000000000e+00  0.0000000000000000e+00  0.0000000000000000e+00  0.0000000000000000e+00  0.0000000000000000e+00  0.0000000000000000e+00  0.0000000000000000e+00  0.0000000000000000e+00  0.0000000000000000e+00  0.0000000000000000e+00  0.0000000000000000e+00  0.0000000000000000e+00  0.0000000000000000e+00  0.0000000000000000e+00  0.0000000000000000e+00  0.0000000000000000e+00  0.0000000000000000e+00  0.0000000000000000e+00  0.0000000000000000e+00  0.0000000000000000e+00  0.0000000000000000e+00  0.0000000000000000e+00  0.0000000000000000e+00  0.0000000000000000e+00  0.0000000000000000e+00  0.0000000000000000e+00  0.0000000000000000e+00  0.0000000000000000e+00  0.0000000000000000e+00  0.0000000000000000e+00  0.0000000000000000e+00  0.0000000000000000e+00  0.0000000000000000e+00  0.0000000000000000e+00  0.0000000000000000e+00  0.0000000000000000e+00  0.0000000000000000e+00  0.0000000000000000e+00  0.0000000000000000e+00  0.0000000000000000e+00  0.0000000000000000e+00  0.0000000000000000e+00  0.0000000000000000e+00  0.0000000000000000e+00  0.0000000000000000e+00  0.0000000000000000e+00  0.0000000000000000e+00  0.0000000000000000e+00  0.0000000000000000e+00  0.0000000000000000e+00  0.0000000000000000e+00  0.0000000000000000e+00  0.0000000000000000e+00  0.0000000000000000e+00  0.0000000000000000e+00  0.0000000000000000e+00  0.0000000000000000e+00  0.0000000000000000e+00  0.0000000000000000e+00  0.0000000000000000e+00  0.0000000000000000e+00  0.0000000000000000e+00  0.0000000000000000e+00  0.0000000000000000e+00  0.0000000000000000e+00  0.0000000000000000e+00  0.0000000000000000e+00  0.0000000000000000e+00  0.0000000000000000e+00  0.0000000000000000e+00  0.0000000000000000e+00  0.0000000000000000e+00  0.0000000000000000e+00  0.0000000000000000e+00  0.0000000000000000e+00  0.0000000000000000e+00  0.0000000000000000e+00  0.0000000000000000e+00  0.0000000000000000e+00  0.0000000000000000e+00  0.0000000000000000e+00  0.0000000000000000e+00  0.0000000000000000e+00  0.0000000000000000e+00  0.0000000000000000e+00  0.0000000000000000e+00  0.0000000000000000e+00  0.0000000000000000e+00  0.0000000000000000e+00  0.0000000000000000e+00  0.0000000000000000e+00  0.0000000000000000e+00  0.0000000000000000e+00  0.0000000000000000e+00  0.0000000000000000e+00  0.0000000000000000e+00  0.0000000000000000e+00  0.0000000000000000e+00  0.0000000000000000e+00  0.0000000000000000e+00  0.0000000000000000e+00  0.0000000000000000e+00  0.0000000000000000e+00  0.0000000000000000e+00  0.0000000000000000e+00  0.0000000000000000e+00  0.0000000000000000e+00  0.0000000000000000e+00  0.0000000000000000e+00  0.0000000000000000e+00  0.0000000000000000e+00  0.0000000000000000e+00  0.0000000000000000e+00  0.0000000000000000e+00  0.0000000000000000e+00  0.0000000000000000e+00  0.0000000000000000e+00  0.0000000000000000e+00  0.0000000000000000e+00  0.0000000000000000e+00  0.0000000000000000e+00  0.0000000000000000e+00  0.0000000000000000e+00  0.0000000000000000e+00  0.0000000000000000e+00  0.0000000000000000e+00  0.0000000000000000e+00  0.0000000000000000e+00  0.0000000000000000e+00  0.0000000000000000e+00  0.0000000000000000e+00  0.0000000000000000e+00  0.0000000000000000e+00  0.0000000000000000e+00  0.0000000000000000e+00  0.0000000000000000e+00  0.0000000000000000e+00  0.0000000000000000e+00  0.0000000000000000e+00  0.0000000000000000e+00  0.0000000000000000e+00  0.0000000000000000e+00  0.0000000000000000e+00  0.0000000000000000e+00  0.0000000000000000e+00  0.0000000000000000e+00  0.0000000000000000e+00  0.0000000000000000e+00  0.0000000000000000e+00  0.0000000000000000e+00  0.0000000000000000e+00  0.0000000000000000e+00  0.0000000000000000e+00  0.0000000000000000e+00  0.0000000000000000e+00  0.0000000000000000e+00  0.0000000000000000e+00  0.0000000000000000e+00  0.0000000000000000e+00  0.0000000000000000e+00  0.0000000000000000e+00  0.0000000000000000e+00  0.0000000000000000e+00  0.0000000000000000e+00  0.0000000000000000e+00  0.0000000000000000e+00  0.0000000000000000e+00  0.0000000000000000e+00  0.0000000000000000e+00  0.0000000000000000e+00  0.0000000000000000e+00  0.0000000000000000e+00  0.0000000000000000e+00  0.0000000000000000e+00  0.0000000000000000e+00  0.0000000000000000e+00  0.0000000000000000e+00  0.0000000000000000e+00  0.0000000000000000e+00  0.0000000000000000e+00  0.0000000000000000e+00  0.0000000000000000e+00  0.0000000000000000e+00  0.0000000000000000e+00  0.0000000000000000e+00  0.0000000000000000e+00  0.0000000000000000e+00  0.0000000000000000e+00  0.0000000000000000e+00  0.0000000000000000e+00  0.0000000000000000e+00  0.0000000000000000e+00  0.0000000000000000e+00  0.0000000000000000e+00  0.0000000000000000e+00  0.0000000000000000e+00  0.0000000000000000e+00  0.0000000000000000e+00  0.0000000000000000e+00  0.0000000000000000e+00  0.0000000000000000e+00  0.0000000000000000e+00  0.0000000000000000e+00  0.0000000000000000e+00  0.0000000000000000e+00  0.0000000000000000e+00  0.0000000000000000e+00  0.0000000000000000e+00  6.7610087966978689e+133  -1.4738613034982277e+129  7.4558801698481904e+129  4.4939322705080372e+130  4.4441256709354923e+129  1.1899423443685367e+130  1.6799388989481297e+127  -1.1182167600574987e+125  7.4431003792369023e+125  5.3005717316082015e+124  2.7482578610888677e+125  7.8400013398931592e+133  7.3810131509294219e+125  1.7403787251614599e+124  -3.3411579571860026e+132  -3.9192520532672446e+132  8.6650707969666310e+123  -4.0107284120229131e+123  1.5916849846291979e+121  -1.3405162816493522e+124  -1.7801987486453018e+122  4.3449254566039791e+123  -5.7419722796025795e+121  9.3378166862544417e+130  6.6846629188749843e+133  6.0017514218009634e+132  2.4247742665280113e+124  7.4939391302577436e+121  -3.7469718026146941e+123  -3.8136880030726360e+130  -5.0981883578714460e+121  -4.5340984639571449e+133  1.0962257933100595e+135  1.4633622464937062e+133  1.4161464406864635e+123  -1.4409437447251184e+121  -2.9732156696469602e+120  -1.9436293721104735e+121  4.9651546507845465e+121  -1.6203456492125723e+129  2.1236635964345458e+130  1.0308675501000090e+125  7.8842755802789152e+127  1.4125947503335068e+134  4.8492569009141802e+120  -3.8013541238028207e+120  2.3943650589991427e+120  2.1797553407220555e+120  -7.4679129850937116e+127  -3.7220081791365936e+125  -4.9476490577389835e+126  -8.8556822115439239e+126  -1.8298383484944527e+128  9.2965139117746210e+130  1.4409313811640143e+123  -1.1906218413340654e+133  1.0565967413947159e+120  2.0761088745998318e+121  -3.7316260223526402e+130  2.8512488955391701e+120  1.0346287841430511e+121  1.1198480378334750e+125  -2.5807649099491242e+120  1.2379542417038241e+120  -2.0403227481090101e+133  1.1264672240743193e+133  -3.1190734727056694e+134  -1.0870972075206619e+130  -5.4391299315852258e+133  -2.3842201663095892e+132  -1.8958354989060396e+133  1.2713584233752621e+128  1.5242400371243300e+128  -1.6361078205747090e+127  -2.8823389174946926e+126  8.9282314099021333e+129  5.4831727477030530e+119  -3.4132855007488725e+129  7.6546941158643589e+132  -1.8079071802109995e+125  -2.8250269723571005e+120  2.8105868597824365e+129  -1.8442351703445270e+120  -3.9221100645947332e+119  2.0513385235482257e+119  9.0689988829742566e+135  -9.4050712057415145e+120  1.2057282478407195e+119  1.6948888947391872e+119  2.9593174010929371e+132  -2.3409799109648041e+124  -1.6124121912689086e+120  8.6766460139606568e+125  1.0654103826709287e+119  -2.2123141366929804e+125  -1.2441742606373317e+136  -9.7958944448073201e+118  2.2436671100716445e+120  2.2808811448377543e+124  2.9660810310311963e+122  -1.4493666135598033e+126  -1.4771327219406525e+125  -2.9901518366030825e+119  -1.0476377602186180e+131  4.5973987349582106e+128  -2.7434784616042953e+128  -7.4732399029817464e+130  -1.1135236912363568e+125  5.2689139579915292e+124  -2.2566731226125204e+119  -1.9757096166713673e+130  -7.9424732758539885e+121  5.2266545053096438e+118  8.2442743948596329e+127  -1.0267146448710735e+128  3.3096621924892097e+121  -1.9954635925111729e+119  9.2123767240917087e+118  7.0437616977603929e+117  -1.4952490546745262e+133  -4.4595849099927846e+131  -2.5342279215089836e+121  -3.4152955325385983e+135  -1.8494293602015913e+120  -8.9394894869998287e+124  -2.3236522667152898e+124  -7.5931983798873163e+118  8.2882135155003067e+118  -5.6353099016044470e+122  1.1952855518246314e+125  -2.7985223988488871e+125  -2.7205031139802638e+124  6.3550611130412199e+127  6.4377185783096274e+129  1.6088050023810403e+126  9.9719364548224970e+123  -8.9835884629763975e+119  -3.2736939045330674e+137  6.2215278170050946e+130  8.7740169057956384e+130  -3.0728980738169506e+133  1.3027636406579232e+137  1.6113741571972400e+122  2.6678545047177212e+133  6.5277123683256832e+127  2.9819367958586186e+122  2.8283023706619082e+121  2.3075583261530390e+131  5.4469163183392456e+134  -5.6369415660302402e+124  -6.5796160267048204e+118  5.0381593590449547e+128  -4.5314457284300733e+133  -2.8133666986416096e+121  3.6008787256086992e+121  -4.8518236328793761e+118  7.9437599117027786e+117  -2.8116350707182253e+123  -4.2545961778864330e+117  -6.0710249115989626e+116  7.3516226782912478e+117  -5.6977635356155144e+121  2.6242146273669764e+126  -6.6461869207014429e+118  -2.5124728598621074e+122  -4.7228458523186814e+128  -1.3333898843321547e+124  1.0510044805062880e+120  -5.3308140965529671e+117  1.9539547156285435e+121  2.4654651295276220e+128  1.0074088955263826e+133  -2.5608605762285425e+121  -4.8738392280942260e+132  1.4422655558033500e+118  -7.7592691735388666e+128  -4.1350106352916890e+118  -8.6033580874323506e+122  4.4985970904505536e+117  -1.4174717684467764e+129  1.0872960328494664e+122  4.1143992024268957e+130  1.5394409440214672e+126  3.5591591921478003e+135  -4.2642412499430326e+116  -2.5967113765476317e+127  1.5716812286013262e+126  1.8228089503670159e+130  -1.3544077980315703e+118  6.2434711347138999e+120  -3.0009361112327433e+118  -1.2291886870635842e+134  1.6407352264502949e+118  -9.3439181556154289e+119  1.3016258308477984e+131  2.9634961034879709e+133  -6.0378724671008389e+122  -1.1364717607605063e+123  -1.3368100447533520e+129  -8.4248824629052760e+124  -1.9816863855244202e+127  2.1683916762298452e+127  1.9538043469780499e+127  9.7040602729293074e+123  -1.9047157189379718e+125  -2.4029685636803481e+122  1.1304678164727988e+122  1.7845849136884236e+132  1.6661650458015033e+120  5.5905659139742934e+122  5.9039376509534663e+122  1.5844842770494525e+132  1.1700059947592473e+132  -1.7816974054409751e+121  -1.4694824336802584e+118  -5.1425410218900731e+123  6.8922739479621286e+131  -6.0619405399347501e+117  -3.4662695481970232e+125  -2.5090494992076594e+125  8.7710977480178458e+120  -5.8897474020483502e+125  -1.5315243942149778e+131  2.2174057190149619e+126  1.3074551863481978e+126  1.3802567083657091e+118  -2.4814552702212189e+123  -1.0919310853876741e+118  -1.1087904605395028e+124  -4.0506723632907005e+117  8.0336642303009620e+117  1.0290126061806906e+118  -3.8970466937941986e+118  -1.1938764207474137e+121  6.2594770620951001e+118  -7.1230970455838119e+128  -1.9103915927534852e+126  -5.5305339265678885e+121  -1.4272696257470292e+121  5.1626353351607648e+131  1.0286691136760244e+133  4.9001813239121654e+126  7.6502286562677502e+126  2.9496858815334705e+118  9.8620473225261022e+129  6.1439193204788250e+121  -1.0192244088552652e+118  -6.0016520728652588e+117  2.1504311630205121e+131  -2.1700608035729144e+128  -5.2582663614433161e+127  1.4616052770110625e+127  2.3402539060106161e+134  2.0917453017236001e+133  -3.6771490267914928e+119  -4.2689287666846322e+132  1.9540975534717499e+124  -1.3499561438816609e+129  -4.8267861196008833e+118  1.4381280685969752e+117  -1.3079840454012550e+118  -9.5823558953108757e+124  -4.3959558060560363e+121  1.6231700817788333e+129  -1.2122914908044288e+131  5.4762744322964972e+131  2.7066649890399666e+121  8.4403664745849683e+118  1.5744287454145989e+118  -1.6972361339161671e+127  1.6564178938065481e+116  -3.1443058606473422e+133  2.5462767795974750e+131  -4.5551170821543346e+123  3.1681372146181956e+121  1.6239885613310442e+123  2.2850974696032712e+134  -1.4342996606464480e+132  -2.9505753844914820e+130  -4.1740828962811566e+129  1.6384271635202932e+131  -9.0210290626818140e+131  7.7096302299428386e+133  3.3409406426401470e+127  -1.4427900336384998e+125  5.9289160559855989e+122  1.1666449940792522e+136  -4.8888592530541030e+118  1.0887225587884483e+121  9.9681456335759969e+131  4.6383802728322711e+134  -1.5162553963720592e+131  4.2918862432171021e+126  5.4352546304712798e+127  1.4568571858236575e+136  6.9540970045528132e+118  1.8045373476094244e+131  -1.0179615315981104e+118  -5.2477597765321202e+117  -1.0829791515822275e+118  -2.9857384959869037e+132  4.7354062022645843e+131  2.0250657335496560e+134  4.9812297977531023e+134  4.9416002805817243e+126  5.7939939159267446e+124  8.6003651722327414e+123  -1.0466267749569724e+127  -4.3024445290628682e+127  8.0341901575422386e+125  1.7263144714579595e+130  -1.1498386593647102e+127  -1.3036966723266999e+133  -1.9189549170097356e+122  -7.4157281786039465e+132  9.5786679005984237e+131  -1.0336015748651587e+128  1.0220674680210385e+123  -5.5650505505645682e+123  -1.6430465668723509e+118  3.2372547211089735e+122  1.2326841053861850e+122  -4.0898817491449784e+118  -7.3602808341266277e+132  1.6495216166900203e+118  -1.6908836759763613e+118  1.2084635325183172e+120  9.5146956708888304e+131  6.5618878371427212e+129  6.1001244121621763e+132  2.9330144704978927e+117  3.8507700508232156e+123  -3.1890863005452554e+125  -3.5094747897851631e+130  7.4392693901036020e+130  5.5472959198520354e+123  -5.6155519554685594e+129  2.0538609499997765e+130  9.8522374840023494e+136  1.2243699005734703e+124  8.7587821092049300e+121  5.0130737773954130e+127  -1.9567597281094424e+119  -7.3426430158496436e+119  4.5047434576472000e+125  -5.2259440297525365e+117  -6.0758446938643079e+121  -4.9678873233871936e+123  4.6973318547105561e+116  -3.8070020245069325e+124  4.9466371509039491e+125  1.6659846625203014e+118  2.9561506279290564e+120  -1.1618944553291975e+117  2.3317711548321304e+121  -9.8258790831654295e+120  -2.1359720473411610e+126  1.0449406924506756e+135  -1.0380601085690753e+119  -6.6856871489116135e+132  1.0070892442413851e+134  -1.2600782572197688e+122  -2.0236050730973379e+118  1.4615665485524744e+127  3.0135455680910371e+120  2.3033088795663896e+135  -1.0062333053076344e+120  -1.4270000805012463e+123  2.0262427527377281e+133  -2.8818003292965680e+120  -2.8985167126292479e+116  2.0946391222814900e+116  7.2620529322809654e+121  1.5395002750430220e+131  -2.4432447708674383e+130  2.5940542642682587e+124  1.1945693960608072e+121  -3.9252624277291564e+134  1.4853735335630835e+126  -9.3441702705509090e+117  -1.2359469866087263e+129  4.4681413333903695e+117  1.4267049574024189e+120  -2.4440994270810622e+129  -2.5517204102238322e+117  1.5478817749812357e+136  -2.3821783454965143e+118  1.7664820872304769e+121  2.3671447520213646e+116  1.4047656425060269e+130  -1.8407349576725234e+126  3.3192615891593054e+122  -2.8175732238885047e+128  -2.1917979040363544e+116  9.1905991881698096e+121  6.7709555661550512e+130  6.5471472882831969e+119  -3.0310315113073816e+128  -9.1147569826394624e+123  5.9112919788126780e+115  -3.4138824158640857e+113  2.2941880577329684e+129  5.3858558361963138e+119  -6.0917008181399261e+130  5.2091493220434987e+121  1.0595039802237154e+131  2.5461365418814456e+126  -5.2666286325212908e+117  1.8922668267406757e+120  2.5300977485608976e+121  2.8328073402941389e+120  1.7643968490187761e+120  2.7168259967499165e+132  -2.0163789756594606e+133  5.9897831086325281e+136  2.7965013288484112e+132  -3.9062439594293255e+121  1.1693850442976944e+135  -8.3286317337549914e+131  -2.9181740170530130e+120  -1.7310172887481643e+116  -2.6782359119985271e+117  -7.4691907587780042e+125  -3.3628429750474900e+124  -5.6537165742023780e+122  -4.0317988566782667e+131  -3.1133310812504765e+124  -9.5583506871095533e+117  5.0701262897968076e+116  1.1949490034275486e+118  8.3778569833012691e+125  -3.5360915080689468e+120  6.9496660340507745e+123  1.6152949854663913e+120  4.8197957559186641e+119  -4.0151650062767264e+120  1.8383855454745338e+126  8.0209112234031246e+119  1.1979265061412553e+129  -1.1263473376372101e+128  4.4967148281387721e+128  -5.3459647965261381e+126  -2.5075282604189782e+128  2.5068671366427600e+129  8.7861572985142470e+120  9.6531409171757428e+131  1.2638904593476729e+122  -1.3675327141952534e+135  2.1536878321127492e+125  2.9440967732997340e+130  1.4567887049740757e+128  4.4791476590204272e+135  1.0834443236707557e+121  -7.3005826263628910e+117  1.3607560633698033e+120  9.7712108194961794e+133  1.9556957736078433e+124  -1.4645360112595623e+129  -1.2702339985002008e+129  4.3854861694305974e+119  -4.9223739475584163e+126  -2.8244658208763438e+117  -2.4531645206375033e+135  -2.6753422936553964e+135  3.3935942828122072e+132  7.6447886087849268e+122  -6.8560627986467209e+120  4.9996815369763312e+120  2.2805812174685404e+124  4.5873847565193708e+125  2.4817852683762996e+128  7.0968196163305890e+119  4.8154830692221545e+129  3.6758472846195649e+127  1.7946668780288780e+122  -2.8608013012667384e+135  -8.4241972756544362e+122  -4.3812702025708819e+128  -1.3584850177803722e+125  -6.6888316743855181e+126  -7.7233729874336309e+124  -4.5363637661622233e+120  8.7038011946730498e+116  -5.3708961321923162e+120  4.7853959273318016e+115  1.01814702