<?xml version="1.0"?>
<VTKFile type="UnstructuredGrid"  version="0.1"  >
<UnstructuredGrid>
<Piece  NumberOfPoints="20054" NumberOfCells="39478">
<Points>
<DataArray  type="Float64"  NumberOfComponents="3"  format="ascii">1 0 0  0.9997998037428526 0.02000880895389431 0  0.9991992951284931 0.04000960653046352 0  0.9981987145960756 0.05999438456007805 0  0.9967984627705549 0.07995514128721501 0  0.9949991003022806 0.09988388457430118 0  0.9928013476425149 0.1197726351017051 0  0.9902060847549715 0.139613429562597 0  0.987214350763483 0.1593983238513969 0  0.9838273435359444 0.1791193962445356 0  0.9800464192046954 0.198768750572253 0  0.9758730916235354 0.2183385193801655 0  0.9713090317615876 0.237820867079336 0  0.9663560670342555 0.2572079930835849 0  0.9610161805715396 0.2764921349327862 0  0.9552915104240066 0.2956655714008991 0  0.9491843487067304 0.3147206255874884 0  0.9426971406815462 0.3336496679914983 0  0.9358324837779861 0.3524451195660473 0  0.9285931265532873 0.3710994547530225 0  0.9209819675918909 0.3896052044962556 0  0.9130020543448703 0.4079549592320781 0  0.9046565819097542 0.4261413718560547 0  0.8959488917512338 0.4441571606647087 0  0.8868824703632656 0.4619951122710622 0  0.8774609478731046 0.4796480844928215 0  0.8676880965878291 0.4971090092120542 0  0.8575678294839372 0.5143708952052096 0  0.8471041986406199 0.5314268309423539 0  0.8363013936173391 0.5482699873544935 0  0.8251637397763597 0.5648936205678837 0  0.8136956965509062 0.5812910746042258 0  0.8019018556596399 0.5974557840456699 0  0.7897869392681683 0.6133812766635599 0  0.777355798098326 0.6290611760098652 0  0.7646134094859813 0.6444892039702628 0  0.7515648753881492 0.6596591832778468 0  0.7382154203402046 0.6745650399864606 0  0.7245703893640189 0.6892008059026586 0  0.7106352458278521 0.7035606209753273 0  0.6964155692588616 0.7176387356420051 0  0.6819170531091018 0.7314295131309636 0  0.6671455024759069 0.7449274317181303 0  0.6521068317775753 0.7581270869379442 0  0.6368070623852795 0.7710231937472638 0  0.6212523202121545 0.7836105886414595 0  0.6054488332605282 0.795884231721841 0  0.5894029291282759 0.8078392087135958 0  0.5731210324752972 0.8194707329334278 0  0.5566096624511305 0.8307741472061095 0  0.5398754300847343 0.8417449257291802 0  0.5229250356374803 0.8523786758850435 0  0.5057652659204196 0.8626711399997378 0  0.4884029915768944 0.8726181970476778 0  0.4708451643315825 0.8822158643016828 0  0.45309881420708 0.8914602989276292 0  0.4351710467091336 0.9003477995230937 0  0.4170690399816468 0.9088748075993677 0  0.398800041932607 0.9170379090062476 0  0.3803713673320772 0.9248338352990368 0  0.3617903948834157 0.9322594650472057 0  0.3430645642688987 0.9393118250841893 0  0.3242013731709288 0.9459880916978206 0  0.3052083742700172 0.952285591760924 0  0.2860931722207478 0.9582018038016155 0  0.2668634206069304 0.963734359012881 0  0.2475268188771628 0.9688810422010291 0  0.2280911092620296 0.9736397926726377 0  0.2085640736741707 0.9780087050596407 0  0.1889535305924618 0.9819860300822225 0  0.1692673319315541 0.9855701752492174 0  0.1495133598980264 0.9887597054957302 0  0.1296995238344084 0.9915533437577263 0  0.1098337570523395 0.9939499714833577 0  0.08992401365612977 0.9959486290808237 0  0.06997826535799723 0.9975485163025836 0  0.05000449828625179 0.9987489925657699 0  0.03001070978771124 0.9995495772086734 0  0.01000490522562346 0.9999499496831961 0  -0.01000490522562333 0.9999499496831961 0  -0.03001070978771133 0.9995495772086734 0  -0.05000449828625144 0.9987489925657699 0  -0.06997826535799688 0.9975485163025836 0  -0.08992401365612987 0.9959486290808237 0  -0.1098337570523394 0.9939499714833577 0  -0.1296995238344082 0.9915533437577263 0  -0.1495133598980262 0.9887597054957303 0  -0.1692673319315537 0.9855701752492174 0  -0.1889535305924614 0.9819860300822226 0  -0.2085640736741705 0.9780087050596407 0  -0.2280911092620295 0.9736397926726377 0  -0.2475268188771627 0.9688810422010291 0  -0.2668634206069302 0.9637343590128811 0  -0.2860931722207475 0.9582018038016156 0  -0.3052083742700173 0.9522855917609239 0  -0.3242013731709289 0.9459880916978205 0  -0.3430645642688986 0.9393118250841894 0  -0.3617903948834154 0.9322594650472058 0  -0.380371367332077 0.924833835299037 0  -0.3988000419326071 0.9170379090062476 0  -0.4170690399816465 0.9088748075993678 0  -0.4351710467091335 0.9003477995230939 0  -0.4530988142070799 0.8914602989276292 0  -0.4708451643315824 0.8822158643016829 0  -0.4884029915768945 0.8726181970476778 0  -0.5057652659204197 0.8626711399997378 0  -0.5229250356374801 0.8523786758850437 0  -0.5398754300847342 0.8417449257291804 0  -0.5566096624511303 0.8307741472061098 0  -0.5731210324752971 0.8194707329334279 0  -0.589402929128276 0.8078392087135957 0  -0.6054488332605281 0.7958842317218411 0  -0.6212523202121542 0.7836105886414597 0  -0.6368070623852793 0.7710231937472639 0  -0.652106831777575 0.7581270869379444 0  -0.6671455024759069 0.7449274317181304 0  -0.6819170531091018 0.7314295131309636 0  -0.6964155692588616 0.7176387356420052 0  -0.7106352458278521 0.7035606209753273 0  -0.7245703893640187 0.6892008059026588 0  -0.7382154203402043 0.6745650399864608 0  -0.751564875388149 0.6596591832778469 0  -0.7646134094859813 0.6444892039702628 0  -0.7773557980983258 0.6290611760098654 0  -0.7897869392681683 0.6133812766635599 0  -0.8019018556596398 0.59745578404567 0  -0.8136956965509062 0.5812910746042258 0  -0.8251637397763595 0.5648936205678839 0  -0.836301393617339 0.5482699873544935 0  -0.8471041986406197 0.5314268309423542 0  -0.8575678294839372 0.5143708952052097 0  -0.8676880965878292 0.497109009212054 0  -0.8774609478731045 0.4796480844928216 0  -0.8868824703632656 0.4619951122710621 0  -0.8959488917512338 0.4441571606647088 0  -0.904656581909754 0.426141371856055 0  -0.9130020543448703 0.4079549592320783 0  -0.920981967591891 0.3896052044962555 0  -0.9285931265532872 0.3710994547530226 0  -0.9358324837779861 0.3524451195660473 0  -0.9426971406815462 0.3336496679914984 0  -0.9491843487067303 0.3147206255874888 0  -0.9552915104240065 0.2956655714008993 0  -0.9610161805715396 0.2764921349327862 0  -0.9663560670342555 0.2572079930835851 0  -0.9713090317615876 0.2378208670793361 0  -0.9758730916235353 0.2183385193801658 0  -0.9800464192046954 0.198768750572253 0  -0.9838273435359444 0.1791193962445354 0  -0.987214350763483 0.159398323851397 0  -0.9902060847549714 0.1396134295625972 0  -0.9928013476425149 0.1197726351017052 0  -0.9949991003022804 0.09988388457430147 0  -0.9967984627705549 0.07995514128721509 0  -0.9981987145960756 0.05999438456007793 0  -0.9991992951284931 0.04000960653046362 0  -0.9997998037428526 0.02000880895389464 0  -1 1.224646799147353e-16 0  -0.9997998037428526 -0.0200088089538944 0  -0.9991992951284931 -0.04000960653046338 0  -0.9981987145960756 -0.05999438456007812 0  -0.9967984627705549 -0.07995514128721484 0  -0.9949991003022806 -0.09988388457430078 0  -0.9928013476425149 -0.1197726351017049 0  -0.9902060847549715 -0.1396134295625965 0  -0.9872143507634831 -0.1593983238513963 0  -0.9838273435359444 -0.1791193962445356 0  -0.9800464192046953 -0.1987687505722532 0  -0.9758730916235354 -0.2183385193801655 0  -0.9713090317615876 -0.2378208670793363 0  -0.9663560670342556 -0.2572079930835848 0  -0.9610161805715396 -0.276492134932786 0  -0.9552915104240066 -0.2956655714008991 0  -0.9491843487067305 -0.3147206255874881 0  -0.9426971406815464 -0.3336496679914978 0  -0.9358324837779862 -0.3524451195660471 0  -0.9285931265532875 -0.371099454753022 0  -0.9209819675918909 -0.3896052044962557 0  -0.9130020543448704 -0.407954959232078 0  -0.9046565819097541 -0.4261413718560548 0  -0.8959488917512338 -0.4441571606647086 0  -0.8868824703632655 -0.4619951122710623 0  -0.8774609478731046 -0.4796480844928214 0  -0.8676880965878293 -0.4971090092120538 0  -0.8575678294839373 -0.5143708952052095 0  -0.84710419864062 -0.5314268309423537 0  -0.8363013936173395 -0.5482699873544929 0  -0.8251637397763596 -0.5648936205678838 0  -0.8136956965509061 -0.5812910746042259 0  -0.8019018556596399 -0.5974557840456699 0  -0.7897869392681682 -0.61338127666356 0  -0.777355798098326 -0.6290611760098652 0  -0.7646134094859816 -0.6444892039702625 0  -0.7515648753881492 -0.6596591832778468 0  -0.7382154203402048 -0.6745650399864603 0  -0.7245703893640192 -0.6892008059026583 0  -0.7106352458278522 -0.7035606209753272 0  -0.6964155692588621 -0.7176387356420046 0  -0.6819170531091017 -0.7314295131309637 0  -0.667145502475907 -0.7449274317181303 0  -0.6521068317775756 -0.758127086937944 0  -0.6368070623852792 -0.7710231937472641 0  -0.6212523202121544 -0.7836105886414596 0  -0.6054488332605283 -0.795884231721841 0  -0.5894029291282762 -0.8078392087135956 0  -0.5731210324752977 -0.8194707329334274 0  -0.5566096624511304 -0.8307741472061095 0  -0.5398754300847344 -0.8417449257291802 0  -0.5229250356374798 -0.8523786758850437 0  -0.5057652659204195 -0.8626711399997379 0  -0.4884029915768943 -0.872618197047678 0  -0.4708451643315825 -0.8822158643016828 0  -0.4530988142070805 -0.8914602989276289 0  -0.4351710467091333 -0.900347799523094 0  -0.4170690399816467 -0.9088748075993677 0  -0.3988000419326073 -0.9170379090062475 0  -0.3803713673320777 -0.9248338352990366 0  -0.3617903948834162 -0.9322594650472055 0  -0.3430645642688988 -0.9393118250841893 0  -0.3242013731709283 -0.9459880916978207 0  -0.3052083742700169 -0.9522855917609241 0  -0.2860931722207477 -0.9582018038016155 0  -0.2668634206069305 -0.963734359012881 0  -0.2475268188771631 -0.968881042201029 0  -0.2280911092620301 -0.9736397926726376 0  -0.2085640736741706 -0.9780087050596407 0  -0.1889535305924619 -0.9819860300822225 0  -0.1692673319315544 -0.9855701752492173 0  -0.1495133598980269 -0.9887597054957302 0  -0.1296995238344092 -0.9915533437577262 0  -0.1098337570523396 -0.9939499714833577 0  -0.08992401365612945 -0.9959486290808237 0  -0.06997826535799691 -0.9975485163025836 0  -0.05000449828625168 -0.9987489925657699 0  -0.0300107
[...]
<PointData  Scalars="Displacement"> 
<DataArray  type="Float64"  Name="Displacement"  format="ascii">0.0000000000000000e+00  0.0000000000000000e+00  0.0000000000000000e+00  0.0000000000000000e+00  0.0000000000000000e+00  0.0000000000000000e+00  0.0000000000000000e+00  0.0000000000000000e+00  0.0000000000000000e+00  0.0000000000000000e+00  0.0000000000000000e+00  0.0000000000000000e+00  0.0000000000000000e+00  0.0000000000000000e+00  0.0000000000000000e+00  0.0000000000000000e+00  0.0000000000000000e+00  0.0000000000000000e+00  0.0000000000000000e+00  0.0000000000000000e+00  0.0000000000000000e+00  0.0000000000000000e+00  0.0000000000000000e+00  0.0000000000000000e+00  0.0000000000000000e+00  0.0000000000000000e+00  0.0000000000000000e+00  0.0000000000000000e+00  0.0000000000000000e+00  0.0000000000000000e+00  0.0000000000000000e+00  0.0000000000000000e+00  0.0000000000000000e+00  0.0000000000000000e+00  0.0000000000000000e+00  0.0000000000000000e+00  0.0000000000000000e+00  0.0000000000000000e+00  0.0000000000000000e+00  0.0000000000000000e+00  0.0000000000000000e+00  0.0000000000000000e+00  0.0000000000000000e+00  0.0000000000000000e+00  0.0000000000000000e+00  0.0000000000000000e+00  0.0000000000000000e+00  0.0000000000000000e+00  0.0000000000000000e+00  0.0000000000000000e+00  0.0000000000000000e+00  0.0000000000000000e+00  0.0000000000000000e+00  0.0000000000000000e+00  0.0000000000000000e+00  0.0000000000000000e+00  0.0000000000000000e+00  0.0000000000000000e+00  0.0000000000000000e+00  0.0000000000000000e+00  0.0000000000000000e+00  0.0000000000000000e+00  0.0000000000000000e+00  0.0000000000000000e+00  0.0000000000000000e+00  0.0000000000000000e+00  0.0000000000000000e+00  0.0000000000000000e+00  0.0000000000000000e+00  0.0000000000000000e+00  0.0000000000000000e+00  0.0000000000000000e+00  0.0000000000000000e+00  0.0000000000000000e+00  0.0000000000000000e+00  0.0000000000000000e+00  0.0000000000000000e+00  0.0000000000000000e+00  0.0000000000000000e+00  0.0000000000000000e+00  0.0000000000000000e+00  0.0000000000000000e+00  0.0000000000000000e+00  0.0000000000000000e+00  0.0000000000000000e+00  0.0000000000000000e+00  0.0000000000000000e+00  0.0000000000000000e+00  0.0000000000000000e+00  0.0000000000000000e+00  0.0000000000000000e+00  0.0000000000000000e+00  0.0000000000000000e+00  0.0000000000000000e+00  0.0000000000000000e+00  0.0000000000000000e+00  0.0000000000000000e+00  0.0000000000000000e+00  0.0000000000000000e+00  0.0000000000000000e+00  0.0000000000000000e+00  0.0000000000000000e+00  0.0000000000000000e+00  0.0000000000000000e+00  0.0000000000000000e+00  0.0000000000000000e+00  0.0000000000000000e+00  0.0000000000000000e+00  0.0000000000000000e+00  0.0000000000000000e+00  0.0000000000000000e+00  0.0000000000000000e+00  0.0000000000000000e+00  0.0000000000000000e+00  0.0000000000000000e+00  0.0000000000000000e+00  0.0000000000000000e+00  0.0000000000000000e+00  0.0000000000000000e+00  0.0000000000000000e+00  0.0000000000000000e+00  0.0000000000000000e+00  0.0000000000000000e+00  0.0000000000000000e+00  0.0000000000000000e+00  0.0000000000000000e+00  0.0000000000000000e+00  0.0000000000000000e+00  0.0000000000000000e+00  0.0000000000000000e+00  0.0000000000000000e+00  0.0000000000000000e+00  0.0000000000000000e+00  0.0000000000000000e+00  0.0000000000000000e+00  0.0000000000000000e+00  0.0000000000000000e+00  0.0000000000000000e+00  0.0000000000000000e+00  0.0000000000000000e+00  0.0000000000000000e+00  0.0000000000000000e+00  0.0000000000000000e+00  0.0000000000000000e+00  0.0000000000000000e+00  0.0000000000000000e+00  0.0000000000000000e+00  0.0000000000000000e+00  0.0000000000000000e+00  0.0000000000000000e+00  0.0000000000000000e+00  0.0000000000000000e+00  0.0000000000000000e+00  0.0000000000000000e+00  0.0000000000000000e+00  0.0000000000000000e+00  0.0000000000000000e+00  0.0000000000000000e+00  0.0000000000000000e+00  0.0000000000000000e+00  0.0000000000000000e+00  0.0000000000000000e+00  0.0000000000000000e+00  0.0000000000000000e+00  0.0000000000000000e+00  0.0000000000000000e+00  0.0000000000000000e+00  0.0000000000000000e+00  0.0000000000000000e+00  0.0000000000000000e+00  0.0000000000000000e+00  0.0000000000000000e+00  0.0000000000000000e+00  0.0000000000000000e+00  0.0000000000000000e+00  0.0000000000000000e+00  0.0000000000000000e+00  0.0000000000000000e+00  0.0000000000000000e+00  0.0000000000000000e+00  0.0000000000000000e+00  0.0000000000000000e+00  0.0000000000000000e+00  0.0000000000000000e+00  0.0000000000000000e+00  0.0000000000000000e+00  0.0000000000000000e+00  0.0000000000000000e+00  0.0000000000000000e+00  0.0000000000000000e+00  0.0000000000000000e+00  0.0000000000000000e+00  0.0000000000000000e+00  0.0000000000000000e+00  0.0000000000000000e+00  0.0000000000000000e+00  0.0000000000000000e+00  0.0000000000000000e+00  0.0000000000000000e+00  0.0000000000000000e+00  0.0000000000000000e+00  0.0000000000000000e+00  0.0000000000000000e+00  0.0000000000000000e+00  0.0000000000000000e+00  0.0000000000000000e+00  0.0000000000000000e+00  0.0000000000000000e+00  0.0000000000000000e+00  0.0000000000000000e+00  0.0000000000000000e+00  0.0000000000000000e+00  0.0000000000000000e+00  0.0000000000000000e+00  0.0000000000000000e+00  0.0000000000000000e+00  0.0000000000000000e+00  0.0000000000000000e+00  0.0000000000000000e+00  0.0000000000000000e+00  0.0000000000000000e+00  0.0000000000000000e+00  0.0000000000000000e+00  0.0000000000000000e+00  0.0000000000000000e+00  0.0000000000000000e+00  0.0000000000000000e+00  0.0000000000000000e+00  0.0000000000000000e+00  0.0000000000000000e+00  0.0000000000000000e+00  0.0000000000000000e+00  0.0000000000000000e+00  0.0000000000000000e+00  0.0000000000000000e+00  0.0000000000000000e+00  0.0000000000000000e+00  0.0000000000000000e+00  0.0000000000000000e+00  0.0000000000000000e+00  0.0000000000000000e+00  0.0000000000000000e+00  0.0000000000000000e+00  0.0000000000000000e+00  0.0000000000000000e+00  0.0000000000000000e+00  0.0000000000000000e+00  0.0000000000000000e+00  0.0000000000000000e+00  0.0000000000000000e+00  0.0000000000000000e+00  0.0000000000000000e+00  0.0000000000000000e+00  0.0000000000000000e+00  0.0000000000000000e+00  0.0000000000000000e+00  0.0000000000000000e+00  0.0000000000000000e+00  0.0000000000000000e+00  0.0000000000000000e+00  0.0000000000000000e+00  0.0000000000000000e+00  0.0000000000000000e+00  0.0000000000000000e+00  0.0000000000000000e+00  0.0000000000000000e+00  0.0000000000000000e+00  0.0000000000000000e+00  0.0000000000000000e+00  0.0000000000000000e+00  0.0000000000000000e+00  0.0000000000000000e+00  0.0000000000000000e+00  0.0000000000000000e+00  0.0000000000000000e+00  0.0000000000000000e+00  0.0000000000000000e+00  0.0000000000000000e+00  0.0000000000000000e+00  0.0000000000000000e+00  0.0000000000000000e+00  0.0000000000000000e+00  0.0000000000000000e+00  0.0000000000000000e+00  0.0000000000000000e+00  0.0000000000000000e+00  0.0000000000000000e+00  0.0000000000000000e+00  0.0000000000000000e+00  0.0000000000000000e+00  0.0000000000000000e+00  0.0000000000000000e+00  0.0000000000000000e+00  0.0000000000000000e+00  0.0000000000000000e+00  0.0000000000000000e+00  0.0000000000000000e+00  0.0000000000000000e+00  0.0000000000000000e+00  0.0000000000000000e+00  0.0000000000000000e+00  0.0000000000000000e+00  0.0000000000000000e+00  0.0000000000000000e+00  0.0000000000000000e+00  0.0000000000000000e+00  0.0000000000000000e+00  0.0000000000000000e+00  0.0000000000000000e+00  0.0000000000000000e+00  0.0000000000000000e+00  0.0000000000000000e+00  0.0000000000000000e+00  0.0000000000000000e+00  2.6635716385613090e-01  -3.1000423298640306e-02  -3.1158511304043630e-02  -3.0996352634178725e-02  -3.1029727013558012e-02  -3.1164157377994047e-02  -1.6388525569089537e-02  -9.9686458689324728e-03  -8.9404473723352588e-03  -7.7539112620286545e-03  -7.5220914950876131e-03  8.1381549037270913e-03  -6.1484449872664191e-03  -6.0726737158355130e-03  3.5349335396704089e-02  5.8154992486454574e-02  -4.6663655597015468e-03  -4.8077811126164384e-03  -4.7228010480687760e-03  -4.9111299159254850e-03  -4.3815518339432920e-03  -4.3960272618522077e-03  -4.3551287057555016e-03  -9.4062672145824477e-02  -9.3550290389066149e-02  1.6000871889048360e-01  -5.0853832545904327e-03  -3.5133625537265927e-03  -3.6987436203863178e-03  -4.1213038527442326e-02  -3.6690661196688182e-03  8.8750723310598828e-02  2.5561503431215760e-01  -3.4684655661860443e-02  -3.3457359823824387e-03  -2.6769927694077745e-03  -2.6996319523526959e-03  -2.9455651827001751e-03  -2.6712753314128476e-03  -1.9170007060206311e-02  -1.7961414059258985e-02  -1.6814270435196389e-02  -1.6115180268180127e-02  3.1237276156447569e-01  -2.4870132170184659e-03  -2.4279741915679757e-03  -2.4536305598500618e-03  -2.4125563494991117e-03  -1.3586329043761258e-02  -1.4261389903448498e-02  -6.9630492854753480e-03  -1.9697794787267957e-02  -1.5761698693498822e-02  -4.6564258151264401e-02  -2.3171871914727401e-03  3.3398582419667250e-01  -2.5332868261359769e-03  -2.1715386002509060e-03  -3.7160173507639026e-02  -2.1904546055043208e-03  -1.9811636527111102e-03  -7.9827192516472387e-03  -2.0088717813907401e-03  -2.1502555445300749e-03  -3.8011057825170197e-02  1.6758686230605405e-01  -9.4957934510712064e-02  -4.6297000590607942e-02  -9.3660815204729186e-02  3.6704979514994807e-01  -3.4948243961715787e-02  -1.3785895540450526e-02  -1.0351696175540454e-02  -1.1399096557200190e-02  -1.1389209498200870e-02  -7.5223557747228831e-02  -2.1456270098732582e-03  -8.4525770401560021e-02  -7.2782774628373362e-02  -8.2764037113086785e-03  -1.9068544093419988e-03  -9.1784509037202713e-02  -1.9432464639268406e-03  -1.9672344476993758e-03  -1.9334390510046620e-03  3.7647850985047288e-01  -2.0068039015131304e-03  -1.6957029484832588e-03  -1.9735575076515444e-03  -9.3196152760117446e-02  -7.0971468474117106e-03  -1.6920291446962529e-03  -1.0590600446503574e-02  -1.6520670052178070e-03  -6.9977127434232220e-03  3.2460844941503608e-01  -1.9355123549791066e-03  -1.6755849675687642e-03  -6.4082806750087292e-03  -5.6722827402428816e-03  -8.7764663451377813e-03  -6.7044760727964356e-03  -1.6401350927372649e-03  -5.6579961365192749e-02  -2.1192692111311598e-02  -2.1213629249589028e-02  -6.8937503726984567e-02  -5.6449931663312813e-03  -6.0770194079028473e-03  -1.4605912330632133e-03  -7.5002343725083104e-02  -1.3334960245974584e-03  -1.3073821469341911e-03  -1.3079594775007940e-02  -1.2460239380076893e-02  -5.8413496792983693e-03  -1.3660854186176297e-03  -1.5171544829658632e-03  -1.5307038272877442e-03  3.6701179086728214e-01  -6.0153637947193667e-02  -3.8098547246142337e-03  4.9794018873743510e-02  -2.1118315360627964e-03  -4.8268195227023801e-03  -7.5851025705103289e-03  -1.6728938472204036e-03  -1.3481422007161465e-03  -4.6955641107123769e-03  -4.8613009934122039e-03  -7.7611150076867079e-03  -5.1135004943524505e-03  -1.0316592055101088e-02  -4.4768710226234992e-02  -1.3647197691291824e-02  -5.7786873285267330e-03  -1.6172867560019760e-03  7.4220612629151000e-02  -9.2649022817324400e-02  -1.9281428145877497e-02  3.8500800300547317e-01  7.6855258927402928e-02  -3.6798398757143728e-03  -7.5412670026441420e-02  -1.2835154826572961e-02  -3.5412418081349722e-03  -3.9595854601512980e-03  2.0475314803118747e-02  3.0782091425984770e-01  -9.1513409801638485e-03  -1.2666441965323045e-03  -1.2677388441272152e-02  -9.3857637010825570e-02  -4.0032944504612240e-03  -4.2002331026440229e-03  -2.1010463529791703e-03  -1.0484340214823387e-03  -3.7212259619442837e-03  -1.3435040517321682e-03  -1.2081094878898322e-03  -1.2585033055574641e-03  -3.9106129040677460e-03  -8.1618482282924190e-03  -1.2337268589319723e-03  -2.9075557667145417e-03  -2.7514600414631649e-02  -4.3813646832631401e-03  -1.5893451446512359e-03  -1.2427717444141746e-03  -3.6726584929482049e-03  -1.4469511867642884e-02  3.8014116008041193e-01  -3.5455341203989212e-03  -9.4374886055253099e-02  -1.1266186605781007e-03  -4.9582730440617069e-02  -9.9471539570302305e-04  -4.4403228194223208e-03  -1.1636278732323150e-03  -3.6926999728764107e-02  -3.6334035590722515e-03  -2.3264579246087897e-02  -1.4006884996474504e-02  1.8831206286040642e-01  -1.3626515733246103e-03  -1.9327208229583365e-02  -8.8787371788776760e-03  -3.5445859348454643e-02  -1.1756992789317344e-03  -2.6668920706234504e-03  -1.1955364383672094e-03  3.1076291143478396e-01  -1.0534773367381442e-03  -1.1593250901762808e-03  -2.3089406664323471e-02  -5.3938885015244117e-02  -4.4133779214804878e-03  -3.2946385660988170e-03  -2.7153336621032642e-02  -8.1517539225870166e-03  -1.2545213846028181e-02  -1.4951319634601288e-02  -3.2769390238620869e-02  -8.5312717058059727e-03  -1.2589931877333062e-02  -3.2458995426938903e-03  -3.4433179583862176e-03  1.3004076671753753e-01  -1.8779234431778066e-03  -3.3297733058512617e-03  -4.7227736849939847e-03  2.8626925133212727e-01  3.7369295797329022e-01  -1.1113610934223306e-03  -1.1844048645964858e-03  -3.6597398941392613e-03  -4.0069746056264496e-02  -1.1462027907296914e-03  -9.2081199958176721e-03  -7.6735513404789400e-03  -2.4260250003016372e-03  -6.8001954304230732e-03  -8.4084838723803998e-02  -1.0283769115903908e-02  -7.8486850122884526e-03  -1.1076711329038628e-03  -5.8729194988511356e-03  -1.0407442982000204e-03  -7.7594103867685785e-03  -1.0777432337284181e-03  -1.2130034788492164e-03  -1.2625569617321284e-03  -1.0133935986980569e-03  -2.6409844414248518e-03  -1.0458487726867517e-03  -5.0104062111244498e-02  -1.3016756059673843e-02  -2.9255697421565491e-03  -3.0118419026406561e-03  9.9159102929910675e-02  -1.4630397055522923e-02  -8.8311956420128665e-03  -1.0854502573671510e-02  -1.3024179165414980e-03  -2.9484342527527026e-02  -8.7234712480237426e-04  -1.0673288692186038e-03  -1.1991198064620972e-03  -9.1179047145916514e-02  -3.8468077668936639e-02  -1.7735654081946575e-02  -1.8783304906776824e-02  4.8872566607051138e-02  3.7575711525238759e-01  -2.8793545384443050e-03  -9.2525594288264845e-02  -3.6669853594468687e-03  -2.0123092369800939e-02  -1.2907728864453300e-03  -9.6186825606812986e-04  -1.3617912825368203e-03  -5.9211112982204281e-03  -3.0501056041299700e-03  -1.4137126091206199e-02  -4.1451295175019297e-02  -8.8847087237630643e-02  -2.3292824826773263e-03  -1.4151071093485199e-03  -1.4020444022755263e-03  -1.4179885370514924e-02  -8.8972230911259361e-04  -9.2395586079517228e-02  -4.4822080725384544e-02  -4.4254379815461828e-03  -3.2986914694786906e-03  -6.2346884494859957e-03  -6.7132820541143723e-02  -4.1571161089481279e-02  -9.4429321453588122e-02  -8.0155083705677088e-02  -2.2452324054616061e-02  1.6925662250528883e-01  2.1483793335775778e-01  -7.7629212681398080e-03  -6.2961701879805307e-03  -4.7657895230777281e-03  -1.8037531319820329e-02  -9.4343947416749673e-04  -3.0319317196204495e-03  -8.3573840356709631e-02  2.0219638594479072e-01  -4.6257781452934903e-02  -8.8383875313817178e-03  -1.6272724788444794e-02  2.5818669215040363e-01  -1.1271674928771335e-03  -1.8822651674820935e-02  -1.1045289072395296e-03  -9.0773169686392925e-04  -9.7063568103082642e-04  3.2759298702393713e-01  3.6299686497455963e-01  -4.3605092412238491e-02  1.2662453330594076e-01  -6.8616524911996723e-03  -1.0150035001625550e-02  -5.0836750827266868e-03  -1.2940075317382969e-02  -7.9543919951842058e-03  -9.1630377215041869e-03  -1.9676618540634922e-02  -8.4346510301430769e-03  -2.0349715769148780e-02  -4.2249406954150432e-03  2.1543558014933820e-01  1.5749090047238218e-01  -1.4622353189646452e-02  -5.0452565497834025e-03  -6.2885035175375519e-03  -8.5794135612512438e-04  -3.4188415882704013e-03  -3.6565657745147961e-03  -8.8797843930481051e-04  -7.9115609051815639e-02  -9.9004711275533759e-04  -7.6740386403207836e-04  -2.3652437187497298e-03  -8.2189342455788822e-02  -9.2815805017263858e-02  3.5211640783075607e-02  -8.5191005582248324e-04  -5.1299399343410082e-03  -8.3157437804317579e-03  -2.5493526281879272e-02  -6.9899048022915508e-02  -4.8714585713338799e-03  -2.9780060750434684e-02  -7.8574980374225209e-02  1.6249393536412315e-01  -7.0872546347551194e-03  -3.0092607822696862e-03  -3.0955857376988988e-02  -2.3863892756528574e-03  -2.2884002174662394e-03  -7.0554070947412102e-03  -6.6572968134219620e-04  -3.2418794888654547e-03  -3.5860690272601615e-03  -9.3837086847004599e-04  -6.7199126945217723e-03  -6.7677873601966736e-03  -6.4226201221705679e-04  -2.3364969023896187e-03  -6.8999002845017182e-04  -2.5229230617338249e-03  -2.4104857120809502e-03  -1.7446963560028839e-02  3.4408232962055252e-01  -2.0690370041724971e-03  3.3087733857949381e-01  2.6805613178745585e-01  -4.1758613140824366e-03  -8.7462261065930939e-04  -1.2506734069088060e-02  -2.1722312720233749e-03  -4.9813246209003237e-02  -2.3748333666596326e-03  -5.8348596616876946e-03  3.8606206817685162e-01  -3.0579394194013305e-03  -8.4943739407659935e-04  -1.1842533739297465e-03  -3.0987397480778949e-03  -9.2378801859823195e-02  -5.8102873271561918e-02  -5.9260654396828304e-03  -1.2669130131971744e-03  3.5700818487758235e-01  -1.1750965074771176e-02  -7.1391022369864967e-04  -2.2701492635625358e-02  -7.8382761848954697e-04  -2.7515478554716948e-03  -2.9193108010519789e-02  -8.5809607455520113e-04  1.7362408823261263e-01  -7.9111446555208461e-04  -2.9670892342598108e-03  -6.9002225427343704e-04  -8.0313772960495952e-02  -1.3953175585956415e-02  -6.9429455802459336e-03  -1.4741308672411227e-02  -8.7374093643890506e-04  -2.7102122164080287e-03  -8.0758343480180295e-02  -1.0686901932697459e-03  -1.0889704639772185e-02  -4.5871742163928406e-03  -8.4376294866982506e-04  -7.5665032559137416e-04  -1.8894296712937866e-02  -1.9884121959522351e-03  -4.6103784353011872e-02  -4.8374801023458426e-03  -1.9421173797236072e-02  -1.3775540145321523e-02  -8.6319498961839078e-04  -2.6144658687347728e-03  -3.0667018846986657e-03  -1.9613383372274616e-03  -2.2243745877827655e-03  -5.7516017701107820e-02  -9.3861309006121302e-02  2.1800118793150045e-01  -9.4390143423561834e-02  -2.8315799593066062e-03  3.9238974289637435e-02  -3.3672387912221401e-02  -2.5569864146106958e-03  -7.0544687725562966e-04  -1.2611622334954206e-03  -1.0356613993467274e-02  -7.7157293578310982e-03  -4.5965749150031418e-03  -9.5009025549388268e-02  -5.1233091828301412e-03  -6.9018537659689923e-04  -9.0263936009803093e-04  -1.0659597511824155e-03  -7.8084197579515024e-03  -2.1984668076810033e-03  -4.2704590583538581e-03  -2.0458873482419497e-03  -2.2844550865285650e-03  -2.4018178551445638e-03  -1.0211582404409824e-02  -2.8890103400588184e-03  -3.0569171035770663e-02  -1.2276966787558586e-02  -1.6507273573239792e-02  -1.1870807116470570e-02  -2.3493726251508931e-02  -7.5142304921370931e-02  -1.8637839438084259e-03  -6.6983471688663587e-02  -4.0589043925381351e-03  3.8115407290869180e-01  -8.9826076001951784e-03  -2.9736776008366685e-02  -2.0655746954017239e-02  -8.8874712588371596e-02  -1.8909266707062158e-03  -6.1068956819071787e-04  -7.5393185384574140e-04  6.4596788219794060e-02  -6.7563814743373304e-03  -2.5143810430603368e-02  -3.0904200251505309e-02  -1.6118843103257107e-03  -1.2620243386484025e-02  -6.2954990530774172e-04  1.8529505710767571e-01  -4.6184336716032649e-02  -3.5395624992263001e-02  -4.1310476789853450e-03  -2.6645882513022159e-03  -1.9891838139153308e-03  -4.9959112516936880e-03  -5.4127790958191082e-03  -1.4252071577084970e-02  -1.9190485708092567e-03  -3.6767522263267828e-02  -2.4492960618501518e-02  -3.0014153527784387e-03  1.9187589446411010e-01  -5.2307226694454194e-03  -2.5435313923568143e-02  -6.0919652183744604e-03  -9.7199707307508397e-03  -7.9971215940914317e-03  -4.0144818346948552e-03  -6.8445091342035863e-04  -2.1685208458013089e-03  -7.4396823656512796e-04  -2.0073958740027763e-03  -1.3777768381387666e-03  -8.1843003742332221e-02  -3.4333050220834590e-03  -1.3088948783243218e-02  -4.3060660348402001e-03  -6.9367535327445121e-02  -1.4652754763848056e-02  -5.7567900934166798e-02  -1.3615599190434076e-03  -6.6297747507654325e-02  -1.10735591204