<?xml version="1.0"?>
<VTKFile type="UnstructuredGrid"  version="0.1"  >
<UnstructuredGrid>
<Piece  NumberOfPoints="20054" NumberOfCells="39478">
<Points>
<DataArray  type="Float64"  NumberOfComponents="3"  format="ascii">1 0 0  0.9997998037428526 0.02000880895389431 0  0.9991992951284931 0.04000960653046352 0  0.9981987145960756 0.05999438456007805 0  0.9967984627705549 0.07995514128721501 0  0.9949991003022806 0.09988388457430118 0  0.9928013476425149 0.1197726351017051 0  0.9902060847549715 0.139613429562597 0  0.987214350763483 0.1593983238513969 0  0.9838273435359444 0.1791193962445356 0  0.9800464192046954 0.198768750572253 0  0.9758730916235354 0.2183385193801655 0  0.9713090317615876 0.237820867079336 0  0.9663560670342555 0.2572079930835849 0  0.9610161805715396 0.2764921349327862 0  0.9552915104240066 0.2956655714008991 0  0.9491843487067304 0.3147206255874884 0  0.9426971406815462 0.3336496679914983 0  0.9358324837779861 0.3524451195660473 0  0.9285931265532873 0.3710994547530225 0  0.9209819675918909 0.3896052044962556 0  0.9130020543448703 0.4079549592320781 0  0.9046565819097542 0.4261413718560547 0  0.8959488917512338 0.4441571606647087 0  0.8868824703632656 0.4619951122710622 0  0.8774609478731046 0.4796480844928215 0  0.8676880965878291 0.4971090092120542 0  0.8575678294839372 0.5143708952052096 0  0.8471041986406199 0.5314268309423539 0  0.8363013936173391 0.5482699873544935 0  0.8251637397763597 0.5648936205678837 0  0.8136956965509062 0.5812910746042258 0  0.8019018556596399 0.5974557840456699 0  0.7897869392681683 0.6133812766635599 0  0.777355798098326 0.6290611760098652 0  0.7646134094859813 0.6444892039702628 0  0.7515648753881492 0.6596591832778468 0  0.7382154203402046 0.6745650399864606 0  0.7245703893640189 0.6892008059026586 0  0.7106352458278521 0.7035606209753273 0  0.6964155692588616 0.7176387356420051 0  0.6819170531091018 0.7314295131309636 0  0.6671455024759069 0.7449274317181303 0  0.6521068317775753 0.7581270869379442 0  0.6368070623852795 0.7710231937472638 0  0.6212523202121545 0.7836105886414595 0  0.6054488332605282 0.795884231721841 0  0.5894029291282759 0.8078392087135958 0  0.5731210324752972 0.8194707329334278 0  0.5566096624511305 0.8307741472061095 0  0.5398754300847343 0.8417449257291802 0  0.5229250356374803 0.8523786758850435 0  0.5057652659204196 0.8626711399997378 0  0.4884029915768944 0.8726181970476778 0  0.4708451643315825 0.8822158643016828 0  0.45309881420708 0.8914602989276292 0  0.4351710467091336 0.9003477995230937 0  0.4170690399816468 0.9088748075993677 0  0.398800041932607 0.9170379090062476 0  0.3803713673320772 0.9248338352990368 0  0.3617903948834157 0.9322594650472057 0  0.3430645642688987 0.9393118250841893 0  0.3242013731709288 0.9459880916978206 0  0.3052083742700172 0.952285591760924 0  0.2860931722207478 0.9582018038016155 0  0.2668634206069304 0.963734359012881 0  0.2475268188771628 0.9688810422010291 0  0.2280911092620296 0.9736397926726377 0  0.2085640736741707 0.9780087050596407 0  0.1889535305924618 0.9819860300822225 0  0.1692673319315541 0.9855701752492174 0  0.1495133598980264 0.9887597054957302 0  0.1296995238344084 0.9915533437577263 0  0.1098337570523395 0.9939499714833577 0  0.08992401365612977 0.9959486290808237 0  0.06997826535799723 0.9975485163025836 0  0.05000449828625179 0.9987489925657699 0  0.03001070978771124 0.9995495772086734 0  0.01000490522562346 0.9999499496831961 0  -0.01000490522562333 0.9999499496831961 0  -0.03001070978771133 0.9995495772086734 0  -0.05000449828625144 0.9987489925657699 0  -0.06997826535799688 0.9975485163025836 0  -0.08992401365612987 0.9959486290808237 0  -0.1098337570523394 0.9939499714833577 0  -0.1296995238344082 0.9915533437577263 0  -0.1495133598980262 0.9887597054957303 0  -0.1692673319315537 0.9855701752492174 0  -0.1889535305924614 0.9819860300822226 0  -0.2085640736741705 0.9780087050596407 0  -0.2280911092620295 0.9736397926726377 0  -0.2475268188771627 0.9688810422010291 0  -0.2668634206069302 0.9637343590128811 0  -0.2860931722207475 0.9582018038016156 0  -0.3052083742700173 0.9522855917609239 0  -0.3242013731709289 0.9459880916978205 0  -0.3430645642688986 0.9393118250841894 0  -0.3617903948834154 0.9322594650472058 0  -0.380371367332077 0.924833835299037 0  -0.3988000419326071 0.9170379090062476 0  -0.4170690399816465 0.9088748075993678 0  -0.4351710467091335 0.9003477995230939 0  -0.4530988142070799 0.8914602989276292 0  -0.4708451643315824 0.8822158643016829 0  -0.4884029915768945 0.8726181970476778 0  -0.5057652659204197 0.8626711399997378 0  -0.5229250356374801 0.8523786758850437 0  -0.5398754300847342 0.8417449257291804 0  -0.5566096624511303 0.8307741472061098 0  -0.5731210324752971 0.8194707329334279 0  -0.589402929128276 0.8078392087135957 0  -0.6054488332605281 0.7958842317218411 0  -0.6212523202121542 0.7836105886414597 0  -0.6368070623852793 0.7710231937472639 0  -0.652106831777575 0.7581270869379444 0  -0.6671455024759069 0.7449274317181304 0  -0.6819170531091018 0.7314295131309636 0  -0.6964155692588616 0.7176387356420052 0  -0.7106352458278521 0.7035606209753273 0  -0.7245703893640187 0.6892008059026588 0  -0.7382154203402043 0.6745650399864608 0  -0.751564875388149 0.6596591832778469 0  -0.7646134094859813 0.6444892039702628 0  -0.7773557980983258 0.6290611760098654 0  -0.7897869392681683 0.6133812766635599 0  -0.8019018556596398 0.59745578404567 0  -0.8136956965509062 0.5812910746042258 0  -0.8251637397763595 0.5648936205678839 0  -0.836301393617339 0.5482699873544935 0  -0.8471041986406197 0.5314268309423542 0  -0.8575678294839372 0.5143708952052097 0  -0.8676880965878292 0.497109009212054 0  -0.8774609478731045 0.4796480844928216 0  -0.8868824703632656 0.4619951122710621 0  -0.8959488917512338 0.4441571606647088 0  -0.904656581909754 0.426141371856055 0  -0.9130020543448703 0.4079549592320783 0  -0.920981967591891 0.3896052044962555 0  -0.9285931265532872 0.3710994547530226 0  -0.9358324837779861 0.3524451195660473 0  -0.9426971406815462 0.3336496679914984 0  -0.9491843487067303 0.3147206255874888 0  -0.9552915104240065 0.2956655714008993 0  -0.9610161805715396 0.2764921349327862 0  -0.9663560670342555 0.2572079930835851 0  -0.9713090317615876 0.2378208670793361 0  -0.9758730916235353 0.2183385193801658 0  -0.9800464192046954 0.198768750572253 0  -0.9838273435359444 0.1791193962445354 0  -0.987214350763483 0.159398323851397 0  -0.9902060847549714 0.1396134295625972 0  -0.9928013476425149 0.1197726351017052 0  -0.9949991003022804 0.09988388457430147 0  -0.9967984627705549 0.07995514128721509 0  -0.9981987145960756 0.05999438456007793 0  -0.9991992951284931 0.04000960653046362 0  -0.9997998037428526 0.02000880895389464 0  -1 1.224646799147353e-16 0  -0.9997998037428526 -0.0200088089538944 0  -0.9991992951284931 -0.04000960653046338 0  -0.9981987145960756 -0.05999438456007812 0  -0.9967984627705549 -0.07995514128721484 0  -0.9949991003022806 -0.09988388457430078 0  -0.9928013476425149 -0.1197726351017049 0  -0.9902060847549715 -0.1396134295625965 0  -0.9872143507634831 -0.1593983238513963 0  -0.9838273435359444 -0.1791193962445356 0  -0.9800464192046953 -0.1987687505722532 0  -0.9758730916235354 -0.2183385193801655 0  -0.9713090317615876 -0.2378208670793363 0  -0.9663560670342556 -0.2572079930835848 0  -0.9610161805715396 -0.276492134932786 0  -0.9552915104240066 -0.2956655714008991 0  -0.9491843487067305 -0.3147206255874881 0  -0.9426971406815464 -0.3336496679914978 0  -0.9358324837779862 -0.3524451195660471 0  -0.9285931265532875 -0.371099454753022 0  -0.9209819675918909 -0.3896052044962557 0  -0.9130020543448704 -0.407954959232078 0  -0.9046565819097541 -0.4261413718560548 0  -0.8959488917512338 -0.4441571606647086 0  -0.8868824703632655 -0.4619951122710623 0  -0.8774609478731046 -0.4796480844928214 0  -0.8676880965878293 -0.4971090092120538 0  -0.8575678294839373 -0.5143708952052095 0  -0.84710419864062 -0.5314268309423537 0  -0.8363013936173395 -0.5482699873544929 0  -0.8251637397763596 -0.5648936205678838 0  -0.8136956965509061 -0.5812910746042259 0  -0.8019018556596399 -0.5974557840456699 0  -0.7897869392681682 -0.61338127666356 0  -0.777355798098326 -0.6290611760098652 0  -0.7646134094859816 -0.6444892039702625 0  -0.7515648753881492 -0.6596591832778468 0  -0.7382154203402048 -0.6745650399864603 0  -0.7245703893640192 -0.6892008059026583 0  -0.7106352458278522 -0.7035606209753272 0  -0.6964155692588621 -0.7176387356420046 0  -0.6819170531091017 -0.7314295131309637 0  -0.667145502475907 -0.7449274317181303 0  -0.6521068317775756 -0.758127086937944 0  -0.6368070623852792 -0.7710231937472641 0  -0.6212523202121544 -0.7836105886414596 0  -0.6054488332605283 -0.795884231721841 0  -0.5894029291282762 -0.8078392087135956 0  -0.5731210324752977 -0.8194707329334274 0  -0.5566096624511304 -0.8307741472061095 0  -0.5398754300847344 -0.8417449257291802 0  -0.5229250356374798 -0.8523786758850437 0  -0.5057652659204195 -0.8626711399997379 0  -0.4884029915768943 -0.872618197047678 0  -0.4708451643315825 -0.8822158643016828 0  -0.4530988142070805 -0.8914602989276289 0  -0.4351710467091333 -0.900347799523094 0  -0.4170690399816467 -0.9088748075993677 0  -0.3988000419326073 -0.9170379090062475 0  -0.3803713673320777 -0.9248338352990366 0  -0.3617903948834162 -0.9322594650472055 0  -0.3430645642688988 -0.9393118250841893 0  -0.3242013731709283 -0.9459880916978207 0  -0.3052083742700169 -0.9522855917609241 0  -0.2860931722207477 -0.9582018038016155 0  -0.2668634206069305 -0.963734359012881 0  -0.2475268188771631 -0.968881042201029 0  -0.2280911092620301 -0.9736397926726376 0  -0.2085640736741706 -0.9780087050596407 0  -0.1889535305924619 -0.9819860300822225 0  -0.1692673319315544 -0.9855701752492173 0  -0.1495133598980269 -0.9887597054957302 0  -0.1296995238344092 -0.9915533437577262 0  -0.1098337570523396 -0.9939499714833577 0  -0.08992401365612945 -0.9959486290808237 0  -0.06997826535799691 -0.9975485163025836 0  -0.05000449828625168 -0.9987489925657699 0  -0.030010709787
[...]
<PointData  Scalars="Displacement"> 
<DataArray  type="Float64"  Name="Displacement"  format="ascii">0.0000000000000000e+00  0.0000000000000000e+00  0.0000000000000000e+00  0.0000000000000000e+00  0.0000000000000000e+00  0.0000000000000000e+00  0.0000000000000000e+00  0.0000000000000000e+00  0.0000000000000000e+00  0.0000000000000000e+00  0.0000000000000000e+00  0.0000000000000000e+00  0.0000000000000000e+00  0.0000000000000000e+00  0.0000000000000000e+00  0.0000000000000000e+00  0.0000000000000000e+00  0.0000000000000000e+00  0.0000000000000000e+00  0.0000000000000000e+00  0.0000000000000000e+00  0.0000000000000000e+00  0.0000000000000000e+00  0.0000000000000000e+00  0.0000000000000000e+00  0.0000000000000000e+00  0.0000000000000000e+00  0.0000000000000000e+00  0.0000000000000000e+00  0.0000000000000000e+00  0.0000000000000000e+00  0.0000000000000000e+00  0.0000000000000000e+00  0.0000000000000000e+00  0.0000000000000000e+00  0.0000000000000000e+00  0.0000000000000000e+00  0.0000000000000000e+00  0.0000000000000000e+00  0.0000000000000000e+00  0.0000000000000000e+00  0.0000000000000000e+00  0.0000000000000000e+00  0.0000000000000000e+00  0.0000000000000000e+00  0.0000000000000000e+00  0.0000000000000000e+00  0.0000000000000000e+00  0.0000000000000000e+00  0.0000000000000000e+00  0.0000000000000000e+00  0.0000000000000000e+00  0.0000000000000000e+00  0.0000000000000000e+00  0.0000000000000000e+00  0.0000000000000000e+00  0.0000000000000000e+00  0.0000000000000000e+00  0.0000000000000000e+00  0.0000000000000000e+00  0.0000000000000000e+00  0.0000000000000000e+00  0.0000000000000000e+00  0.0000000000000000e+00  0.0000000000000000e+00  0.0000000000000000e+00  0.0000000000000000e+00  0.0000000000000000e+00  0.0000000000000000e+00  0.0000000000000000e+00  0.0000000000000000e+00  0.0000000000000000e+00  0.0000000000000000e+00  0.0000000000000000e+00  0.0000000000000000e+00  0.0000000000000000e+00  0.0000000000000000e+00  0.0000000000000000e+00  0.0000000000000000e+00  0.0000000000000000e+00  0.0000000000000000e+00  0.0000000000000000e+00  0.0000000000000000e+00  0.0000000000000000e+00  0.0000000000000000e+00  0.0000000000000000e+00  0.0000000000000000e+00  0.0000000000000000e+00  0.0000000000000000e+00  0.0000000000000000e+00  0.0000000000000000e+00  0.0000000000000000e+00  0.0000000000000000e+00  0.0000000000000000e+00  0.0000000000000000e+00  0.0000000000000000e+00  0.0000000000000000e+00  0.0000000000000000e+00  0.0000000000000000e+00  0.0000000000000000e+00  0.0000000000000000e+00  0.0000000000000000e+00  0.0000000000000000e+00  0.0000000000000000e+00  0.0000000000000000e+00  0.0000000000000000e+00  0.0000000000000000e+00  0.0000000000000000e+00  0.0000000000000000e+00  0.0000000000000000e+00  0.0000000000000000e+00  0.0000000000000000e+00  0.0000000000000000e+00  0.0000000000000000e+00  0.0000000000000000e+00  0.0000000000000000e+00  0.0000000000000000e+00  0.0000000000000000e+00  0.0000000000000000e+00  0.0000000000000000e+00  0.0000000000000000e+00  0.0000000000000000e+00  0.0000000000000000e+00  0.0000000000000000e+00  0.0000000000000000e+00  0.0000000000000000e+00  0.0000000000000000e+00  0.0000000000000000e+00  0.0000000000000000e+00  0.0000000000000000e+00  0.0000000000000000e+00  0.0000000000000000e+00  0.0000000000000000e+00  0.0000000000000000e+00  0.0000000000000000e+00  0.0000000000000000e+00  0.0000000000000000e+00  0.0000000000000000e+00  0.0000000000000000e+00  0.0000000000000000e+00  0.0000000000000000e+00  0.0000000000000000e+00  0.0000000000000000e+00  0.0000000000000000e+00  0.0000000000000000e+00  0.0000000000000000e+00  0.0000000000000000e+00  0.0000000000000000e+00  0.0000000000000000e+00  0.0000000000000000e+00  0.0000000000000000e+00  0.0000000000000000e+00  0.0000000000000000e+00  0.0000000000000000e+00  0.0000000000000000e+00  0.0000000000000000e+00  0.0000000000000000e+00  0.0000000000000000e+00  0.0000000000000000e+00  0.0000000000000000e+00  0.0000000000000000e+00  0.0000000000000000e+00  0.0000000000000000e+00  0.0000000000000000e+00  0.0000000000000000e+00  0.0000000000000000e+00  0.0000000000000000e+00  0.0000000000000000e+00  0.0000000000000000e+00  0.0000000000000000e+00  0.0000000000000000e+00  0.0000000000000000e+00  0.0000000000000000e+00  0.0000000000000000e+00  0.0000000000000000e+00  0.0000000000000000e+00  0.0000000000000000e+00  0.0000000000000000e+00  0.0000000000000000e+00  0.0000000000000000e+00  0.0000000000000000e+00  0.0000000000000000e+00  0.0000000000000000e+00  0.0000000000000000e+00  0.0000000000000000e+00  0.0000000000000000e+00  0.0000000000000000e+00  0.0000000000000000e+00  0.0000000000000000e+00  0.0000000000000000e+00  0.0000000000000000e+00  0.0000000000000000e+00  0.0000000000000000e+00  0.0000000000000000e+00  0.0000000000000000e+00  0.0000000000000000e+00  0.0000000000000000e+00  0.0000000000000000e+00  0.0000000000000000e+00  0.0000000000000000e+00  0.0000000000000000e+00  0.0000000000000000e+00  0.0000000000000000e+00  0.0000000000000000e+00  0.0000000000000000e+00  0.0000000000000000e+00  0.0000000000000000e+00  0.0000000000000000e+00  0.0000000000000000e+00  0.0000000000000000e+00  0.0000000000000000e+00  0.0000000000000000e+00  0.0000000000000000e+00  0.0000000000000000e+00  0.0000000000000000e+00  0.0000000000000000e+00  0.0000000000000000e+00  0.0000000000000000e+00  0.0000000000000000e+00  0.0000000000000000e+00  0.0000000000000000e+00  0.0000000000000000e+00  0.0000000000000000e+00  0.0000000000000000e+00  0.0000000000000000e+00  0.0000000000000000e+00  0.0000000000000000e+00  0.0000000000000000e+00  0.0000000000000000e+00  0.0000000000000000e+00  0.0000000000000000e+00  0.0000000000000000e+00  0.0000000000000000e+00  0.0000000000000000e+00  0.0000000000000000e+00  0.0000000000000000e+00  0.0000000000000000e+00  0.0000000000000000e+00  0.0000000000000000e+00  0.0000000000000000e+00  0.0000000000000000e+00  0.0000000000000000e+00  0.0000000000000000e+00  0.0000000000000000e+00  0.0000000000000000e+00  0.0000000000000000e+00  0.0000000000000000e+00  0.0000000000000000e+00  0.0000000000000000e+00  0.0000000000000000e+00  0.0000000000000000e+00  0.0000000000000000e+00  0.0000000000000000e+00  0.0000000000000000e+00  0.0000000000000000e+00  0.0000000000000000e+00  0.0000000000000000e+00  0.0000000000000000e+00  0.0000000000000000e+00  0.0000000000000000e+00  0.0000000000000000e+00  0.0000000000000000e+00  0.0000000000000000e+00  0.0000000000000000e+00  0.0000000000000000e+00  0.0000000000000000e+00  0.0000000000000000e+00  0.0000000000000000e+00  0.0000000000000000e+00  0.0000000000000000e+00  0.0000000000000000e+00  0.0000000000000000e+00  0.0000000000000000e+00  0.0000000000000000e+00  0.0000000000000000e+00  0.0000000000000000e+00  0.0000000000000000e+00  0.0000000000000000e+00  0.0000000000000000e+00  0.0000000000000000e+00  0.0000000000000000e+00  0.0000000000000000e+00  0.0000000000000000e+00  0.0000000000000000e+00  0.0000000000000000e+00  0.0000000000000000e+00  0.0000000000000000e+00  0.0000000000000000e+00  0.0000000000000000e+00  0.0000000000000000e+00  0.0000000000000000e+00  0.0000000000000000e+00  0.0000000000000000e+00  0.0000000000000000e+00  0.0000000000000000e+00  0.0000000000000000e+00  0.0000000000000000e+00  0.0000000000000000e+00  0.0000000000000000e+00  0.0000000000000000e+00  0.0000000000000000e+00  0.0000000000000000e+00  0.0000000000000000e+00  0.0000000000000000e+00  0.0000000000000000e+00  0.0000000000000000e+00  0.0000000000000000e+00  0.0000000000000000e+00  0.0000000000000000e+00  0.0000000000000000e+00  0.0000000000000000e+00  0.0000000000000000e+00  0.0000000000000000e+00  0.0000000000000000e+00  4.3089992153231810e+139  -1.6201841036268699e+135  3.9551340835950614e+135  4.8845229549633171e+135  2.3407305792311754e+135  6.3349715013870625e+135  8.3844257375400636e+132  -1.4721207794753561e+131  2.3973119163155630e+132  5.8208069461590588e+130  6.4905175406406830e+131  4.2845469769445944e+139  4.1236483256342535e+131  1.9289042814863227e+130  1.6033190865715126e+138  -2.1178788017419638e+138  2.4084810534860303e+130  -4.9808386302294341e+129  6.2751273722502852e+127  -6.7420011741425790e+129  -1.6090519723322233e+128  4.3823718791320637e+129  -1.8987366448511170e+127  1.0749076881345284e+137  1.2957773514399991e+140  2.4473331504182254e+138  3.8959922175399338e+130  5.7074290254732920e+127  -1.1950218808157044e+129  -6.5277148617791346e+136  -5.6191752009107809e+127  -8.7973832324504292e+139  1.1609747456029318e+141  8.1680963072600551e+138  1.4458868224719541e+129  -2.0852891639911033e+127  -4.4744575611401098e+126  -3.2790876470307074e+127  -4.3127654975083544e+127  -2.3087456511408725e+135  2.9865823154058409e+136  2.0276400351406146e+131  1.6448926817686833e+134  2.4951868723956260e+140  6.7096266851834861e+126  -4.1896578974722990e+126  5.9200227883270801e+126  3.7172731289418106e+126  -8.3178244229755625e+133  3.0361016283992841e+132  -2.5047076548586877e+132  -5.1964724711259677e+132  -4.1661800902195149e+134  1.9647872030144462e+137  1.8863090875713178e+129  -2.6821103609430120e+138  1.1272162368330600e+127  1.3627694038811258e+127  -1.8346702140063199e+136  2.1135002607444281e+126  6.0800737908530225e+126  9.5657490990878897e+130  -1.8865625290781543e+126  1.2866600873594402e+126  -8.5923395689429106e+138  -5.2131452031492162e+138  -3.5122296041119793e+140  -1.0798907001818828e+136  -7.6250475525289189e+139  -1.0143107346321957e+138  -2.6349527445944067e+139  1.0249546943677023e+134  9.1881669630453525e+133  -1.9030301657257434e+133  -1.3176867530590453e+132  -4.4917421958412103e+136  2.3377327262377435e+126  -4.4801105852596241e+135  8.1657107917150388e+138  3.9659685993236244e+130  -1.4197419795642196e+126  3.5275369924135630e+135  -9.2804460643138231e+125  -1.2758118390069942e+125  3.3706187040227154e+125  5.7698624809372142e+141  -3.6702516471262564e+126  5.3767862593357422e+124  1.7974909793025919e+125  1.7287599543874669e+138  -3.5157257150357673e+130  -2.6994427050215343e+126  5.8946058727271488e+131  1.0959606525044653e+125  -3.4217463990690179e+131  -1.3900227170962341e+142  -1.0307190650279884e+125  2.4619805384513331e+126  3.0099306696795910e+130  6.5500274664172887e+128  -1.2663658603274935e+132  -3.0744580837827852e+131  -6.5715190163240391e+125  -1.1590888191817110e+137  5.0286853328563409e+134  -1.7827171993087030e+134  -1.2459224332835644e+137  -1.3460518173685532e+131  1.3056838290952041e+131  -6.1767994866315448e+123  -4.1112554943618646e+136  -1.7358148235739706e+128  8.0991777187411795e+124  1.2221297721890967e+134  -5.6045262276297768e+133  1.3234183594018534e+128  -1.8056031210093506e+125  1.0210015646893439e+124  1.0074466048121774e+124  -1.3911630098033440e+139  -3.1614628775651663e+137  -8.9044702645794552e+128  -3.8131886016366326e+141  1.7685149570266206e+125  -5.2657039278174974e+130  -1.5776921368429358e+130  -1.7590214335532308e+125  1.2239390228500759e+125  -1.9372505100888720e+129  7.5103194227355676e+130  -3.0313315053070712e+131  -3.4607979541542944e+130  7.8948958372146941e+133  9.9839414032178052e+135  1.2875321190354833e+132  6.9479927269824730e+129  -1.4738664329802739e+126  -6.3305729707596530e+143  -1.7632513886413247e+137  1.1178060619321480e+137  -2.1266360959051422e+139  1.8110837926292397e+143  1.9993001385105439e+128  1.4590221718042136e+139  6.9705694365272123e+133  4.7365016102943819e+128  9.1767688060265096e+127  1.6898294002501605e+137  -3.1357321535666632e+139  -2.8042852188829104e+130  -9.6527838935551358e+124  2.8211396964572468e+134  -2.4433269455330218e+139  -1.5910744469718847e+127  5.5941095882586186e+127  -5.9071659767337942e+125  4.4681925048505562e+123  -3.6721618443208365e+129  -7.6778624932343063e+124  5.3653615321076718e+122  1.3090191882622821e+124  -7.9449809996107593e+127  1.5408713237414408e+132  -2.3499244941662246e+124  -1.4011889348895182e+128  -2.7345050461671481e+134  -6.7751685874046003e+129  6.9827602541537998e+125  -1.5225053795113005e+124  2.2359237738472697e+127  1.6959347830577162e+134  2.3641798420868416e+138  -5.9225925642082368e+127  -6.7337733792275088e+138  2.0046255164865841e+124  -5.0998532899930597e+134  -7.5564656946950973e+124  -1.9305648399905234e+129  -8.8314897184338479e+123  -6.9909721758224570e+134  1.4999909934834392e+128  4.6452328722551257e+136  1.4800815522644669e+132  1.5000849739229923e+141  1.1797630096941831e+123  -4.1669191882895667e+133  2.4155319686669135e+132  2.5416272421444734e+136  -4.7663870471796198e+124  1.5079699163512095e+127  -3.9120795014003856e+124  -2.7165687141476807e+140  2.3821770079905628e+124  -1.3652947644389809e+126  7.0317659130854594e+136  5.8275756310020434e+139  -1.7008624740241550e+129  -2.4927259786917518e+129  -9.7453725535231323e+134  5.2949947574765462e+129  -4.2035855844580036e+133  1.4719637296257776e+133  1.0613748501592109e+132  1.1529579314290504e+130  -5.6642602003273642e+131  -2.3751096832729931e+128  1.3821630662766591e+128  -1.5917054139835319e+138  1.2519004736016929e+126  6.5290012918792501e+128  6.5009986382864198e+128  2.8117108288025606e+138  2.8650247225786777e+137  -2.5790419716647974e+127  -1.3345007846722481e+124  -2.5853832275075532e+129  1.3682066939879859e+138  2.2869147647722765e+124  -3.8293334469385265e+131  -1.5833082191342709e+131  1.1326511764139655e+127  -2.2628435905659808e+131  -2.1274791876152251e+137  1.1336052859740784e+132  2.5208784152678179e+132  5.9278798707945020e+123  -2.0584838078983248e+129  -3.8555689984695488e+124  -1.3536104574697847e+129  -5.3917035550145862e+123  1.3147570667256638e+125  -1.5578323660680821e+125  -2.2685104304409372e+124  -6.2263279513402624e+126  7.8044914294607109e+124  -9.4926604281092194e+134  -2.0146604683432977e+132  -1.9983065953182901e+127  -2.6596784993407906e+127  5.1327550079901199e+137  4.2715899852081149e+138  5.7083443955713048e+132  1.6850466905617082e+133  -4.5568292907049566e+124  2.0882914721689180e+136  1.5100006703232030e+128  -1.6498101793529035e+123  -9.9157441207391095e+123  4.5413802407674788e+137  -4.7326480949972950e+134  -1.1138248703718908e+134  1.9649309997652151e+133  4.3938441640969299e+140  6.5786790622922099e+138  6.3649528178046446e+125  -4.7278592598219089e+138  9.9553489138645713e+129  -1.0636096201767651e+135  5.9595827774224139e+124  4.9686146099960515e+123  -9.7777419118521018e+123  -1.3492952303854913e+131  -2.6455298438061609e+127  7.7579951100239575e+134  -1.7094277259130555e+137  3.4789157719804063e+137  3.5913641280390338e+127  3.1114037819353839e+125  1.3624938164341519e+124  -1.7742475702918951e+133  1.5152293512280424e+122  -3.5161970477277272e+139  2.8963667343237485e+137  -4.5507224141273974e+129  2.1424277865799271e+127  2.7163559121580154e+129  1.3063042017297554e+140  -4.3479676803160961e+137  3.9292585901855144e+136  -1.8219629658304054e+135  -9.6601565545824100e+136  -1.4927877640455066e+138  -4.0891989121588498e+139  2.0353820353112775e+133  -2.8886496657938615e+131  6.3556839460501417e+128  1.3025276409335160e+142  -1.6557565512672833e+125  4.0313426621233641e+127  1.3855308978747149e+138  1.9744068766943127e+140  -2.9531647089039654e+137  3.1168052015473250e+132  -1.0182414731674592e+132  2.0131250243338672e+142  6.6658834247629579e+124  1.0047966985549664e+137  -8.8928009380159237e+123  -6.2908285803918644e+123  -2.1461420030596178e+123  -1.2608440745049626e+138  3.2454568214128274e+137  2.8154237004973452e+140  6.9263750440484878e+140  2.5275212028366881e+132  3.5317892315166627e+130  2.1509036602315574e+130  -5.7419719048333159e+132  -2.4043157655443263e+133  7.0513034195668888e+131  1.6040266898997519e+136  -1.1404896733272015e+133  -7.8775047755325264e+138  -2.0376250017464759e+128  5.2113106058707325e+137  1.9456612435926938e+137  -6.9818672137772695e+133  9.7593425199217012e+128  -3.6087931542454241e+129  -2.1241546345008845e+124  2.5397601010321058e+128  2.6779626894083957e+127  -1.6663861064049234e+124  -1.4379228968267112e+139  7.3091533197878647e+123  -1.1303275463417729e+124  1.6657383934638255e+126  5.1743152785717448e+137  -2.5198245365341878e+135  -2.6627055921932568e+138  1.5320221945131804e+123  4.3830224347574992e+129  -5.4726312281471375e+131  -3.8576303239558249e+136  9.4854604306917202e+136  1.0147749321611512e+130  4.7167404281352245e+135  1.5759834381517116e+136  1.1000933058329927e+143  9.1629431239389657e+128  1.5944984546500373e+128  -1.4864809208149198e+133  -2.2490374133080560e+125  -1.3527660555684839e+126  2.7825789099591990e+131  -6.2005931281344767e+123  -1.9771448892220664e+128  -2.8623341015569139e+129  1.5355916870842305e+122  -3.5002820833973716e+130  3.9886863448069611e+131  3.3875894081934927e+124  1.8321159331268184e+127  -6.1134371856922539e+122  9.6352275097996245e+126  5.3839935962826417e+126  1.2179600052915258e+132  6.6482312101396683e+140  -5.8616633067631364e+124  -5.8888139963351733e+138  1.3540333278263136e+140  -1.0791511412532947e+128  -2.8756805263326211e+124  2.0211312732922854e+133  -5.5221053295826296e+126  3.2025641474705062e+141  -3.5212382650609613e+126  -1.4962623265501393e+129  6.9866876890945668e+138  -2.3575516765316103e+126  -3.4530115951658445e+121  8.5840203345280200e+121  7.7367708227816638e+127  2.8430045000066971e+136  -1.1640612669082987e+136  5.6417333860235609e+130  1.8180512731257850e+127  -4.3854839278286434e+140  1.6243343157344409e+132  -3.9653321965661432e+124  -1.0545747234511111e+135  1.2032212594665923e+124  4.4533842275188217e+126  -2.1763829167320600e+135  7.9816210149316765e+122  2.9920394064751962e+142  -2.0547889084418156e+124  2.4874301312306402e+127  -3.8652252445604872e+122  1.7943639400652477e+136  -2.0705152442154380e+132  7.4239391793203207e+128  -2.1154543041672040e+134  -7.8723733452742599e+120  1.0524672819704373e+128  8.4690095035937545e+136  1.5249102102975200e+126  -4.6740226810453427e+134  -1.6218477182575929e+130  -6.5283775525297745e+122  -6.7139715239907729e+122  4.7196629214531960e+135  6.2182303430639910e+125  -6.6986726806586621e+136  8.6875919135195036e+128  5.9292996375625592e+136  -1.0600652612020948e+132  -7.3351221918906109e+122  7.7226817156795850e+126  2.9805931873131985e+127  5.8688238477428780e+126  5.3322369355900115e+126  3.0884374706843327e+138  -3.9333656858005604e+139  6.6875661122186199e+142  3.0824395710944306e+138  -5.2340154428821150e+127  1.3005958669868685e+141  -1.0226248581270004e+138  7.1237507906915537e+126  -1.5286063792241493e+123  -6.7531741820644771e+123  -1.0301681897659399e+132  4.8705002002846472e+130  -4.4016160017448679e+128  -8.8830886587693202e+137  -3.2768915512262153e+130  -8.3013036480104585e+123  9.8210138546078241e+122  5.0985567873922632e+124  1.7793246200542560e+132  -7.5295499890609181e+126  3.9303892089013231e+129  1.7134480005962368e+126  1.0712914641470573e+126  -1.0138602086557389e+127  3.8576348306684570e+132  2.7270289477725476e+126  9.2599270582904648e+133  -2.3333515468436551e+134  9.3132094434200890e+134  -5.8902370311529509e+132  -2.6837890249244158e+134  2.3159998286633653e+135  1.0639657268943917e+127  5.4540397673715451e+137  1.7062058551491854e+128  -8.9676194264974245e+140  3.1191142333542394e+131  5.4770552847496662e+136  1.0850044939708963e+134  2.5017439284576976e+141  2.3507408968699594e+127  5.5045700369241173e+123  3.4025986085501211e+126  4.1190167591801377e+139  2.0175267310906461e+130  -1.7154629683669665e+135  -2.6709149554354536e+135  9.5629393182451992e+125  -3.0671401526668328e+132  -3.7198128514891391e+123  -4.6812194858645960e+141  -5.1734613894799779e+141  1.8973693356420706e+138  1.8589539166240677e+129  -1.3504839703498314e+126  1.1123658321343494e+127  1.9680819907130077e+130  2.3782202864154202e+131  3.6051693175040500e+134  8.5132205138929686e+125  -7.4471106247385386e+135  3.4516814309905223e+133  4.6799073945524305e+128  -3.2858412147640148e+141  8.6820021053034128e+128  -7.3523568208814056e+134  -2.5356124923928172e+131  -1.3527184617694996e+133  -8.6678964107276211e+130  1.7526539910187353e+128  -1.0635664206716964e+123  -1.0022532645652303e+127  -6.3868637622629375e+122  6.7662291