<?xml version="1.0"?>
<VTKFile type="UnstructuredGrid"  version="0.1"  >
<UnstructuredGrid>
<Piece  NumberOfPoints="20054" NumberOfCells="39478">
<Points>
<DataArray  type="Float64"  NumberOfComponents="3"  format="ascii">1 0 0  0.9997998037428526 0.02000880895389431 0  0.9991992951284931 0.04000960653046352 0  0.9981987145960756 0.05999438456007805 0  0.9967984627705549 0.07995514128721501 0  0.9949991003022806 0.09988388457430118 0  0.9928013476425149 0.1197726351017051 0  0.9902060847549715 0.139613429562597 0  0.987214350763483 0.1593983238513969 0  0.9838273435359444 0.1791193962445356 0  0.9800464192046954 0.198768750572253 0  0.9758730916235354 0.2183385193801655 0  0.9713090317615876 0.237820867079336 0  0.9663560670342555 0.2572079930835849 0  0.9610161805715396 0.2764921349327862 0  0.9552915104240066 0.2956655714008991 0  0.9491843487067304 0.3147206255874884 0  0.9426971406815462 0.3336496679914983 0  0.9358324837779861 0.3524451195660473 0  0.9285931265532873 0.3710994547530225 0  0.9209819675918909 0.3896052044962556 0  0.9130020543448703 0.4079549592320781 0  0.9046565819097542 0.4261413718560547 0  0.8959488917512338 0.4441571606647087 0  0.8868824703632656 0.4619951122710622 0  0.8774609478731046 0.4796480844928215 0  0.8676880965878291 0.4971090092120542 0  0.8575678294839372 0.5143708952052096 0  0.8471041986406199 0.5314268309423539 0  0.8363013936173391 0.5482699873544935 0  0.8251637397763597 0.5648936205678837 0  0.8136956965509062 0.5812910746042258 0  0.8019018556596399 0.5974557840456699 0  0.7897869392681683 0.6133812766635599 0  0.777355798098326 0.6290611760098652 0  0.7646134094859813 0.6444892039702628 0  0.7515648753881492 0.6596591832778468 0  0.7382154203402046 0.6745650399864606 0  0.7245703893640189 0.6892008059026586 0  0.7106352458278521 0.7035606209753273 0  0.6964155692588616 0.7176387356420051 0  0.6819170531091018 0.7314295131309636 0  0.6671455024759069 0.7449274317181303 0  0.6521068317775753 0.7581270869379442 0  0.6368070623852795 0.7710231937472638 0  0.6212523202121545 0.7836105886414595 0  0.6054488332605282 0.795884231721841 0  0.5894029291282759 0.8078392087135958 0  0.5731210324752972 0.8194707329334278 0  0.5566096624511305 0.8307741472061095 0  0.5398754300847343 0.8417449257291802 0  0.5229250356374803 0.8523786758850435 0  0.5057652659204196 0.8626711399997378 0  0.4884029915768944 0.8726181970476778 0  0.4708451643315825 0.8822158643016828 0  0.45309881420708 0.8914602989276292 0  0.4351710467091336 0.9003477995230937 0  0.4170690399816468 0.9088748075993677 0  0.398800041932607 0.9170379090062476 0  0.3803713673320772 0.9248338352990368 0  0.3617903948834157 0.9322594650472057 0  0.3430645642688987 0.9393118250841893 0  0.3242013731709288 0.9459880916978206 0  0.3052083742700172 0.952285591760924 0  0.2860931722207478 0.9582018038016155 0  0.2668634206069304 0.963734359012881 0  0.2475268188771628 0.9688810422010291 0  0.2280911092620296 0.9736397926726377 0  0.2085640736741707 0.9780087050596407 0  0.1889535305924618 0.9819860300822225 0  0.1692673319315541 0.9855701752492174 0  0.1495133598980264 0.9887597054957302 0  0.1296995238344084 0.9915533437577263 0  0.1098337570523395 0.9939499714833577 0  0.08992401365612977 0.9959486290808237 0  0.06997826535799723 0.9975485163025836 0  0.05000449828625179 0.9987489925657699 0  0.03001070978771124 0.9995495772086734 0  0.01000490522562346 0.9999499496831961 0  -0.01000490522562333 0.9999499496831961 0  -0.03001070978771133 0.9995495772086734 0  -0.05000449828625144 0.9987489925657699 0  -0.06997826535799688 0.9975485163025836 0  -0.08992401365612987 0.9959486290808237 0  -0.1098337570523394 0.9939499714833577 0  -0.1296995238344082 0.9915533437577263 0  -0.1495133598980262 0.9887597054957303 0  -0.1692673319315537 0.9855701752492174 0  -0.1889535305924614 0.9819860300822226 0  -0.2085640736741705 0.9780087050596407 0  -0.2280911092620295 0.9736397926726377 0  -0.2475268188771627 0.9688810422010291 0  -0.2668634206069302 0.9637343590128811 0  -0.2860931722207475 0.9582018038016156 0  -0.3052083742700173 0.9522855917609239 0  -0.3242013731709289 0.9459880916978205 0  -0.3430645642688986 0.9393118250841894 0  -0.3617903948834154 0.9322594650472058 0  -0.380371367332077 0.924833835299037 0  -0.3988000419326071 0.9170379090062476 0  -0.4170690399816465 0.9088748075993678 0  -0.4351710467091335 0.9003477995230939 0  -0.4530988142070799 0.8914602989276292 0  -0.4708451643315824 0.8822158643016829 0  -0.4884029915768945 0.8726181970476778 0  -0.5057652659204197 0.8626711399997378 0  -0.5229250356374801 0.8523786758850437 0  -0.5398754300847342 0.8417449257291804 0  -0.5566096624511303 0.8307741472061098 0  -0.5731210324752971 0.8194707329334279 0  -0.589402929128276 0.8078392087135957 0  -0.6054488332605281 0.7958842317218411 0  -0.6212523202121542 0.7836105886414597 0  -0.6368070623852793 0.7710231937472639 0  -0.652106831777575 0.7581270869379444 0  -0.6671455024759069 0.7449274317181304 0  -0.6819170531091018 0.7314295131309636 0  -0.6964155692588616 0.7176387356420052 0  -0.7106352458278521 0.7035606209753273 0  -0.7245703893640187 0.6892008059026588 0  -0.7382154203402043 0.6745650399864608 0  -0.751564875388149 0.6596591832778469 0  -0.7646134094859813 0.6444892039702628 0  -0.7773557980983258 0.6290611760098654 0  -0.7897869392681683 0.6133812766635599 0  -0.8019018556596398 0.59745578404567 0  -0.8136956965509062 0.5812910746042258 0  -0.8251637397763595 0.5648936205678839 0  -0.836301393617339 0.5482699873544935 0  -0.8471041986406197 0.5314268309423542 0  -0.8575678294839372 0.5143708952052097 0  -0.8676880965878292 0.497109009212054 0  -0.8774609478731045 0.4796480844928216 0  -0.8868824703632656 0.4619951122710621 0  -0.8959488917512338 0.4441571606647088 0  -0.904656581909754 0.426141371856055 0  -0.9130020543448703 0.4079549592320783 0  -0.920981967591891 0.3896052044962555 0  -0.9285931265532872 0.3710994547530226 0  -0.9358324837779861 0.3524451195660473 0  -0.9426971406815462 0.3336496679914984 0  -0.9491843487067303 0.3147206255874888 0  -0.9552915104240065 0.2956655714008993 0  -0.9610161805715396 0.2764921349327862 0  -0.9663560670342555 0.2572079930835851 0  -0.9713090317615876 0.2378208670793361 0  -0.9758730916235353 0.2183385193801658 0  -0.9800464192046954 0.198768750572253 0  -0.9838273435359444 0.1791193962445354 0  -0.987214350763483 0.159398323851397 0  -0.9902060847549714 0.1396134295625972 0  -0.9928013476425149 0.1197726351017052 0  -0.9949991003022804 0.09988388457430147 0  -0.9967984627705549 0.07995514128721509 0  -0.9981987145960756 0.05999438456007793 0  -0.9991992951284931 0.04000960653046362 0  -0.9997998037428526 0.02000880895389464 0  -1 1.224646799147353e-16 0  -0.9997998037428526 -0.0200088089538944 0  -0.9991992951284931 -0.04000960653046338 0  -0.9981987145960756 -0.05999438456007812 0  -0.9967984627705549 -0.07995514128721484 0  -0.9949991003022806 -0.09988388457430078 0  -0.9928013476425149 -0.1197726351017049 0  -0.9902060847549715 -0.1396134295625965 0  -0.9872143507634831 -0.1593983238513963 0  -0.9838273435359444 -0.1791193962445356 0  -0.9800464192046953 -0.1987687505722532 0  -0.9758730916235354 -0.2183385193801655 0  -0.9713090317615876 -0.2378208670793363 0  -0.9663560670342556 -0.2572079930835848 0  -0.9610161805715396 -0.276492134932786 0  -0.9552915104240066 -0.2956655714008991 0  -0.9491843487067305 -0.3147206255874881 0  -0.9426971406815464 -0.3336496679914978 0  -0.9358324837779862 -0.3524451195660471 0  -0.9285931265532875 -0.371099454753022 0  -0.9209819675918909 -0.3896052044962557 0  -0.9130020543448704 -0.407954959232078 0  -0.9046565819097541 -0.4261413718560548 0  -0.8959488917512338 -0.4441571606647086 0  -0.8868824703632655 -0.4619951122710623 0  -0.8774609478731046 -0.4796480844928214 0  -0.8676880965878293 -0.4971090092120538 0  -0.8575678294839373 -0.5143708952052095 0  -0.84710419864062 -0.5314268309423537 0  -0.8363013936173395 -0.5482699873544929 0  -0.8251637397763596 -0.5648936205678838 0  -0.8136956965509061 -0.5812910746042259 0  -0.8019018556596399 -0.5974557840456699 0  -0.7897869392681682 -0.61338127666356 0  -0.777355798098326 -0.6290611760098652 0  -0.7646134094859816 -0.6444892039702625 0  -0.7515648753881492 -0.6596591832778468 0  -0.7382154203402048 -0.6745650399864603 0  -0.7245703893640192 -0.6892008059026583 0  -0.7106352458278522 -0.7035606209753272 0  -0.6964155692588621 -0.7176387356420046 0  -0.6819170531091017 -0.7314295131309637 0  -0.667145502475907 -0.7449274317181303 0  -0.6521068317775756 -0.758127086937944 0  -0.6368070623852792 -0.7710231937472641 0  -0.6212523202121544 -0.7836105886414596 0  -0.6054488332605283 -0.795884231721841 0  -0.5894029291282762 -0.8078392087135956 0  -0.5731210324752977 -0.8194707329334274 0  -0.5566096624511304 -0.8307741472061095 0  -0.5398754300847344 -0.8417449257291802 0  -0.5229250356374798 -0.8523786758850437 0  -0.5057652659204195 -0.8626711399997379 0  -0.4884029915768943 -0.872618197047678 0  -0.4708451643315825 -0.8822158643016828 0  -0.4530988142070805 -0.8914602989276289 0  -0.4351710467091333 -0.900347799523094 0  -0.4170690399816467 -0.9088748075993677 0  -0.3988000419326073 -0.9170379090062475 0  -0.3803713673320777 -0.9248338352990366 0  -0.3617903948834162 -0.9322594650472055 0  -0.3430645642688988 -0.9393118250841893 0  -0.3242013731709283 -0.9459880916978207 0  -0.3052083742700169 -0.9522855917609241 0  -0.2860931722207477 -0.9582018038016155 0  -0.2668634206069305 -0.963734359012881 0  -0.2475268188771631 -0.968881042201029 0  -0.2280911092620301 -0.9736397926726376 0  -0.2085640736741706 -0.9780087050596407 0  -0.1889535305924619 -0.9819860300822225 0  -0.1692673319315544 -0.9855701752492173 0  -0.1495133598980269 -0.9887597054957302 0  -0.1296995238344092 -0.9915533437577262 0  -0.1098337570523396 -0.9939499714833577 0  -0.08992401365612945 -0.9959486290808237 0  -0.06997826535799691 -0.9975485163025836 0  -0.05000449828625168 -0.9987489925657699 0  -0.0300107
[...]
<PointData  Scalars="Displacement"> 
<DataArray  type="Float64"  Name="Displacement"  format="ascii">0.0000000000000000e+00  0.0000000000000000e+00  0.0000000000000000e+00  0.0000000000000000e+00  0.0000000000000000e+00  0.0000000000000000e+00  0.0000000000000000e+00  0.0000000000000000e+00  0.0000000000000000e+00  0.0000000000000000e+00  0.0000000000000000e+00  0.0000000000000000e+00  0.0000000000000000e+00  0.0000000000000000e+00  0.0000000000000000e+00  0.0000000000000000e+00  0.0000000000000000e+00  0.0000000000000000e+00  0.0000000000000000e+00  0.0000000000000000e+00  0.0000000000000000e+00  0.0000000000000000e+00  0.0000000000000000e+00  0.0000000000000000e+00  0.0000000000000000e+00  0.0000000000000000e+00  0.0000000000000000e+00  0.0000000000000000e+00  0.0000000000000000e+00  0.0000000000000000e+00  0.0000000000000000e+00  0.0000000000000000e+00  0.0000000000000000e+00  0.0000000000000000e+00  0.0000000000000000e+00  0.0000000000000000e+00  0.0000000000000000e+00  0.0000000000000000e+00  0.0000000000000000e+00  0.0000000000000000e+00  0.0000000000000000e+00  0.0000000000000000e+00  0.0000000000000000e+00  0.0000000000000000e+00  0.0000000000000000e+00  0.0000000000000000e+00  0.0000000000000000e+00  0.0000000000000000e+00  0.0000000000000000e+00  0.0000000000000000e+00  0.0000000000000000e+00  0.0000000000000000e+00  0.0000000000000000e+00  0.0000000000000000e+00  0.0000000000000000e+00  0.0000000000000000e+00  0.0000000000000000e+00  0.0000000000000000e+00  0.0000000000000000e+00  0.0000000000000000e+00  0.0000000000000000e+00  0.0000000000000000e+00  0.0000000000000000e+00  0.0000000000000000e+00  0.0000000000000000e+00  0.0000000000000000e+00  0.0000000000000000e+00  0.0000000000000000e+00  0.0000000000000000e+00  0.0000000000000000e+00  0.0000000000000000e+00  0.0000000000000000e+00  0.0000000000000000e+00  0.0000000000000000e+00  0.0000000000000000e+00  0.0000000000000000e+00  0.0000000000000000e+00  0.0000000000000000e+00  0.0000000000000000e+00  0.0000000000000000e+00  0.0000000000000000e+00  0.0000000000000000e+00  0.0000000000000000e+00  0.0000000000000000e+00  0.0000000000000000e+00  0.0000000000000000e+00  0.0000000000000000e+00  0.0000000000000000e+00  0.0000000000000000e+00  0.0000000000000000e+00  0.0000000000000000e+00  0.0000000000000000e+00  0.0000000000000000e+00  0.0000000000000000e+00  0.0000000000000000e+00  0.0000000000000000e+00  0.0000000000000000e+00  0.0000000000000000e+00  0.0000000000000000e+00  0.0000000000000000e+00  0.0000000000000000e+00  0.0000000000000000e+00  0.0000000000000000e+00  0.0000000000000000e+00  0.0000000000000000e+00  0.0000000000000000e+00  0.0000000000000000e+00  0.0000000000000000e+00  0.0000000000000000e+00  0.0000000000000000e+00  0.0000000000000000e+00  0.0000000000000000e+00  0.0000000000000000e+00  0.0000000000000000e+00  0.0000000000000000e+00  0.0000000000000000e+00  0.0000000000000000e+00  0.0000000000000000e+00  0.0000000000000000e+00  0.0000000000000000e+00  0.0000000000000000e+00  0.0000000000000000e+00  0.0000000000000000e+00  0.0000000000000000e+00  0.0000000000000000e+00  0.0000000000000000e+00  0.0000000000000000e+00  0.0000000000000000e+00  0.0000000000000000e+00  0.0000000000000000e+00  0.0000000000000000e+00  0.0000000000000000e+00  0.0000000000000000e+00  0.0000000000000000e+00  0.0000000000000000e+00  0.0000000000000000e+00  0.0000000000000000e+00  0.0000000000000000e+00  0.0000000000000000e+00  0.0000000000000000e+00  0.0000000000000000e+00  0.0000000000000000e+00  0.0000000000000000e+00  0.0000000000000000e+00  0.0000000000000000e+00  0.0000000000000000e+00  0.0000000000000000e+00  0.0000000000000000e+00  0.0000000000000000e+00  0.0000000000000000e+00  0.0000000000000000e+00  0.0000000000000000e+00  0.0000000000000000e+00  0.0000000000000000e+00  0.0000000000000000e+00  0.0000000000000000e+00  0.0000000000000000e+00  0.0000000000000000e+00  0.0000000000000000e+00  0.0000000000000000e+00  0.0000000000000000e+00  0.0000000000000000e+00  0.0000000000000000e+00  0.0000000000000000e+00  0.0000000000000000e+00  0.0000000000000000e+00  0.0000000000000000e+00  0.0000000000000000e+00  0.0000000000000000e+00  0.0000000000000000e+00  0.0000000000000000e+00  0.0000000000000000e+00  0.0000000000000000e+00  0.0000000000000000e+00  0.0000000000000000e+00  0.0000000000000000e+00  0.0000000000000000e+00  0.0000000000000000e+00  0.0000000000000000e+00  0.0000000000000000e+00  0.0000000000000000e+00  0.0000000000000000e+00  0.0000000000000000e+00  0.0000000000000000e+00  0.0000000000000000e+00  0.0000000000000000e+00  0.0000000000000000e+00  0.0000000000000000e+00  0.0000000000000000e+00  0.0000000000000000e+00  0.0000000000000000e+00  0.0000000000000000e+00  0.0000000000000000e+00  0.0000000000000000e+00  0.0000000000000000e+00  0.0000000000000000e+00  0.0000000000000000e+00  0.0000000000000000e+00  0.0000000000000000e+00  0.0000000000000000e+00  0.0000000000000000e+00  0.0000000000000000e+00  0.0000000000000000e+00  0.0000000000000000e+00  0.0000000000000000e+00  0.0000000000000000e+00  0.0000000000000000e+00  0.0000000000000000e+00  0.0000000000000000e+00  0.0000000000000000e+00  0.0000000000000000e+00  0.0000000000000000e+00  0.0000000000000000e+00  0.0000000000000000e+00  0.0000000000000000e+00  0.0000000000000000e+00  0.0000000000000000e+00  0.0000000000000000e+00  0.0000000000000000e+00  0.0000000000000000e+00  0.0000000000000000e+00  0.0000000000000000e+00  0.0000000000000000e+00  0.0000000000000000e+00  0.0000000000000000e+00  0.0000000000000000e+00  0.0000000000000000e+00  0.0000000000000000e+00  0.0000000000000000e+00  0.0000000000000000e+00  0.0000000000000000e+00  0.0000000000000000e+00  0.0000000000000000e+00  0.0000000000000000e+00  0.0000000000000000e+00  0.0000000000000000e+00  0.0000000000000000e+00  0.0000000000000000e+00  0.0000000000000000e+00  0.0000000000000000e+00  0.0000000000000000e+00  0.0000000000000000e+00  0.0000000000000000e+00  0.0000000000000000e+00  0.0000000000000000e+00  0.0000000000000000e+00  0.0000000000000000e+00  0.0000000000000000e+00  0.0000000000000000e+00  0.0000000000000000e+00  0.0000000000000000e+00  0.0000000000000000e+00  0.0000000000000000e+00  0.0000000000000000e+00  0.0000000000000000e+00  0.0000000000000000e+00  0.0000000000000000e+00  0.0000000000000000e+00  0.0000000000000000e+00  0.0000000000000000e+00  0.0000000000000000e+00  0.0000000000000000e+00  0.0000000000000000e+00  0.0000000000000000e+00  0.0000000000000000e+00  0.0000000000000000e+00  0.0000000000000000e+00  0.0000000000000000e+00  0.0000000000000000e+00  0.0000000000000000e+00  0.0000000000000000e+00  0.0000000000000000e+00  0.0000000000000000e+00  0.0000000000000000e+00  0.0000000000000000e+00  0.0000000000000000e+00  0.0000000000000000e+00  0.0000000000000000e+00  0.0000000000000000e+00  0.0000000000000000e+00  0.0000000000000000e+00  0.0000000000000000e+00  0.0000000000000000e+00  0.0000000000000000e+00  0.0000000000000000e+00  0.0000000000000000e+00  0.0000000000000000e+00  0.0000000000000000e+00  0.0000000000000000e+00  0.0000000000000000e+00  0.0000000000000000e+00  0.0000000000000000e+00  0.0000000000000000e+00  0.0000000000000000e+00  0.0000000000000000e+00  0.0000000000000000e+00  0.0000000000000000e+00  0.0000000000000000e+00  0.0000000000000000e+00  0.0000000000000000e+00  0.0000000000000000e+00  0.0000000000000000e+00  0.0000000000000000e+00  0.0000000000000000e+00  0.0000000000000000e+00  0.0000000000000000e+00  0.0000000000000000e+00  0.0000000000000000e+00  0.0000000000000000e+00  0.0000000000000000e+00  0.0000000000000000e+00  0.0000000000000000e+00  0.0000000000000000e+00  0.0000000000000000e+00  1.6975879305035907e-01  -2.9233026441036584e-02  -2.9445657125692384e-02  -2.9166943571148081e-02  -2.9374411037862466e-02  -2.9455727305766486e-02  4.7882055337103713e-03  3.6983865898442274e-04  1.3815401230094213e-03  9.5741968725563287e-04  9.1545378274031093e-04  -2.0686616879193287e-01  3.8362864933786186e-04  2.8875577146178364e-04  -1.9609034824250177e-01  -1.8473879847717559e-01  8.3396892534774042e-04  6.5842874070395799e-04  8.0314723569687048e-04  4.1950155854043869e-04  2.1493438758315032e-04  5.2764627822691308e-04  3.0201141535688716e-04  -1.7170405485674972e-01  -1.7200172659200788e-01  -1.1495732692420928e-01  1.0979611599528831e-03  7.3364267653298020e-04  2.3608970805121345e-04  -5.9944779025137840e-02  5.8512554518142033e-04  -1.6700782429995628e-01  -2.2783521779010017e-02  -4.0489046457565452e-02  6.3406624262347347e-04  3.7550992620017775e-05  -5.2082058717584499e-05  2.7928586919814520e-04  2.4034574762414983e-04  5.2503835137886852e-03  5.1376301485303640e-03  5.4915738492319118e-03  4.8283088989786787e-03  4.8749019627955810e-02  2.5051493202765223e-04  2.6310347139396227e-04  3.9451253394418712e-04  5.3387339030488480e-04  9.5683850461046626e-04  2.4554313578097004e-03  1.8112476265320747e-04  4.1385054216902199e-03  4.3322200779964265e-03  -7.2658222309032364e-02  4.1882415894011962e-04  8.0649581252873415e-02  1.3362723571407894e-04  5.1952318786228197e-04  -2.1746835704893888e-01  4.3526468556646995e-04  6.2394890885713466e-04  1.1392201019260872e-03  3.4471252533799257e-04  6.4353715339123669e-04  -2.1745026162758782e-01  -1.0894721806769640e-01  -1.8209325177706934e-01  -7.2644804658931236e-02  -1.8633881834767368e-01  1.4193684257577605e-01  -2.1707133285543492e-01  1.8157918651443890e-03  -4.1327541936022114e-04  -4.0014775259470395e-04  -4.8764081590666961e-04  -2.1126769642746698e-01  3.2981259512938324e-04  -1.4596437840584481e-01  -2.1253235135397544e-01  1.7388066252483601e-03  2.9272666416246888e-04  -1.6546760162319801e-01  1.4655306157577275e-04  3.1502906838415878e-04  5.2583576669783080e-05  1.7113791243645415e-01  2.8193956422844488e-04  1.9895257990936799e-04  3.6121162915503824e-04  -1.8923969348733374e-01  3.9176641886517116e-04  -8.9450738265684946e-05  -2.1876033666003527e-04  -1.8285723528984008e-04  3.5765782799812340e-04  6.6668194219521540e-02  2.6311054629676574e-04  2.0419831000809851e-04  2.7400967672567715e-04  7.6458159396928409e-04  1.6806325611838880e-03  8.4034954021628463e-05  2.6901762770453953e-04  -9.4574928256523541e-02  1.6424769582351693e-03  1.7195530481821980e-03  -1.1767285832247540e-01  6.4470933943787363e-05  3.5434800185944550e-05  7.5511262641126040e-05  -1.2951395082664097e-01  3.2342892312322565e-05  3.8505577020598745e-04  5.4318861066937228e-04  -7.3875164827378118e-04  5.7796383613619307e-04  4.4056451473176389e-04  1.3777020989801800e-04  -7.0619056282579247e-05  1.4307859003568016e-01  -1.0251497268286160e-01  1.1728557880954547e-04  -1.8897393443036334e-01  6.2763330178721951e-04  8.0280890358303512e-04  8.1689613583596900e-04  3.4336970449381766e-04  1.8502974628749477e-04  7.4968753862154002e-04  7.4650879846389689e-04  1.1881826752190242e-03  9.7991213122047968e-04  -3.0615148112384075e-04  -6.7936217080652839e-02  1.4821801697467256e-03  2.5500810079905593e-04  1.7405767776911533e-04  -1.7628561161521092e-01  -1.9241633562866470e-01  -2.1451329135492711e-01  2.2726584254969062e-01  -1.7409366378358898e-01  6.7718690928596941e-04  -1.3014237973703316e-01  1.9634380229852552e-04  4.0474675067380457e-04  7.5585858537055052e-04  -2.0199166990533682e-01  4.3047458102192848e-02  1.3613517811966863e-03  3.6779161071351981e-04  2.7038492984538677e-05  -1.8979998826118646e-01  2.1225910161703541e-04  -9.6862375066524071e-05  4.8345673760921714e-04  2.1638665523877226e-04  2.1526523917164960e-04  5.3574337756024087e-04  1.5828077812093578e-04  1.6340662641789276e-04  5.9182861330161910e-04  1.6643212258310323e-03  2.2942706432133286e-04  3.2139562556167205e-04  -1.7632848419275440e-02  -3.6426491404814003e-05  8.5649567548475711e-05  5.2055741662389570e-04  2.9778644725473490e-04  2.7890464367235990e-03  2.3093603792357412e-01  1.5989667550721793e-04  -1.7958794978903711e-01  2.7335142679023555e-04  -8.0393063729514588e-02  2.8288051183207857e-04  5.5301150273902755e-04  -1.6140183436849555e-04  -4.6960929941940073e-02  6.4773172286057416e-04  -3.6373099303836135e-03  7.8335402263303195e-04  -9.1053684134971641e-02  2.8699065848840870e-04  4.7554828381654755e-03  1.8755590512840115e-03  -4.3125631747198037e-02  7.2353857655710086e-05  2.0268116971595043e-04  1.1206758632201366e-04  4.6748204078605853e-02  -1.6069254214068341e-04  2.1599967693048766e-04  -2.3975960309760018e-03  -2.1750091806267829e-01  4.6466703733117818e-04  7.0840350909571201e-04  -1.6345045743140253e-02  1.6894508377941935e-03  -3.3361075334354957e-04  3.2371610374835333e-03  -3.3931322573717650e-02  1.5204962295092938e-03  -5.7487091995977937e-04  5.7446613234514671e-04  6.5539254963490180e-04  -1.3816668739244523e-01  1.3958625953980081e-04  5.7453734892368527e-04  6.2819865492531510e-04  1.4918663616258970e-02  2.3125404795411580e-01  -3.5059813528774874e-05  9.1035588701456600e-05  3.2949510262363834e-04  -5.6369543127337760e-02  2.0903258115038530e-04  1.4040623581978639e-03  1.3907206688715946e-03  5.0256353193084630e-04  2.7124949279272247e-04  -1.4505735966154962e-01  -1.3191099472381404e-04  1.5155577236078232e-03  1.3146735461906010e-04  2.2545687172383886e-04  1.5505514671852039e-04  1.4000475897836106e-03  -7.4546333633498487e-05  4.2819288119651839e-05  3.4022362764109796e-04  1.1858679166870378e-04  3.7648601120541468e-04  6.0206830459328813e-05  -8.1864497888178747e-02  -5.7563413370533955e-04  -1.8977471532738947e-04  5.8839606720731560e-04  -1.5910876757693976e-01  -2.1327570103882562e-01  1.4833877314814204e-03  -4.0150820596277442e-04  1.6585966284298869e-04  -2.3800931098254537e-02  2.0528678649640052e-05  7.3387727220264822e-05  2.7673009828340929e-04  -1.9543785430473873e-01  -5.1512009637628649e-02  5.1703584476878407e-03  4.9234165372545316e-03  -1.8959006025291761e-01  2.3170274891073053e-01  2.8446082905086908e-05  -1.6785394711693538e-01  4.9602360204117912e-04  3.3233238296479029e-03  2.1587196251553705e-04  6.2338459725080078e-05  2.6769899997171841e-04  5.0292718152854460e-04  3.3178389408916413e-04  1.5320186204302506e-03  -5.9867199338722782e-02  -1.5719283273275017e-01  2.1644878500642998e-04  1.0602067795310176e-04  -3.2038981200543559e-05  1.7760424221863016e-03  6.3009587805210382e-05  -1.9190003893844404e-01  -6.8982295687745818e-02  5.4491213602941109e-04  4.6213208277927532e-04  5.2747941108041273e-04  -2.1478066719138034e-01  -2.1768208471628306e-01  -1.8600350763314311e-01  -2.0816948304877522e-01  -2.1485626859838647e-01  -1.0719122081248925e-01  -6.6834774230313587e-02  1.4248254680074392e-03  4.7276735262700471e-04  1.0561799569695580e-03  -2.1418774704939605e-01  2.3074032852796980e-05  5.6806629911370970e-04  -1.4552034091360627e-01  -7.8164353340147930e-02  -7.2508715556547851e-02  1.4968128955580907e-03  4.7661577380014534e-03  -1.8370150367806506e-02  -6.7822337414898432e-05  4.3809647812659298e-03  -1.2389399459396180e-04  -1.6840425808997497e-04  1.4303590880270821e-04  7.0461403173571732e-02  2.2931401779450020e-01  -2.1783234595810352e-01  -1.4031924550391439e-01  2.3020423036715712e-04  4.4620317960185303e-04  1.0244974778187807e-03  2.9036573750271206e-04  1.4000014995805986e-03  1.5739747269088175e-03  4.1576403393728777e-03  1.6552898346246065e-03  -2.1483049861957546e-01  1.9752296412362845e-04  -6.7077840265280228e-02  -1.1711926520240869e-01  2.5067872743469478e-03  8.5174420373909990e-04  1.0659342782045077e-04  2.8727440576521657e-05  1.9573127756455152e-04  5.5468548315271626e-04  1.0013144664563535e-04  -2.0877963973125899e-01  -8.6138546745744742e-05  -9.4179634903199819e-05  2.5206123675261652e-04  -1.4292614438980819e-01  -1.9276166619735299e-01  -1.9575355914531067e-01  -1.6991602873415770e-04  1.1297405507997582e-03  1.7557120249531715e-03  -1.0191197664441006e-02  -2.1410715682169454e-01  7.0225985429562946e-04  -2.3547937931670357e-02  -2.0961424805532322e-01  -1.1270531750737675e-01  1.8259713072614565e-04  8.1543656746349774e-04  -2.8741715666229725e-02  2.9204288131866074e-04  1.4202942579867841e-04  2.5774252816547884e-04  1.3082633264722277e-04  5.4288503656883238e-04  6.7460735851819313e-04  1.1175196061759620e-05  -1.2344864558966274e-04  4.4083134555753412e-04  2.6112010980480072e-04  3.8259815115887741e-04  2.4292882929673876e-04  3.3914472311557229e-04  4.7567172023662505e-04  5.3872841636770424e-03  2.2057191731620346e-01  6.4821702175107672e-04  7.6959996148566162e-02  -8.0773708546268089e-03  3.8720321719975436e-04  5.8114101445071832e-05  -3.6845269194455001e-04  4.3584192586733740e-04  -2.1770833681469776e-01  4.6362144876697909e-04  3.1466692770043059e-05  2.1354442541980997e-01  1.7860731023010236e-04  1.3553138822443764e-04  1.8521055643230848e-04  4.9386084514530632e-04  -1.9259361507273889e-01  -9.8132632415538754e-02  3.0713839191609987e-04  1.5184494145787367e-04  1.2121582897301801e-01  -4.6889785690673830e-04  8.8179919566114441e-05  -9.0427784143664886e-04  1.6054053831205433e-04  1.6228182670586369e-04  -2.4239136330219579e-02  5.4129817555585144e-05  -1.0464961234969976e-01  4.0170635608367964e-05  7.4603306284157190e-04  2.8646442085505350e-04  -1.3858359726556482e-01  2.3825060580018051e-03  -1.2843611027803017e-04  3.2051989207163641e-03  1.7694055060568454e-05  2.7548544350850109e-04  -1.3932081638478003e-01  1.0411452196426769e-04  -4.2260039288653431e-04  6.0265493186442882e-04  3.5465199379619172e-05  -2.6287762733966661e-05  5.3675932696267397e-03  2.0901500058544126e-04  -7.1858819274414204e-02  9.7184313346108074e-04  3.9676986782017070e-03  1.3453399960232167e-03  -1.3587582282527554e-05  2.0140139730052007e-06  4.5701856070853321e-04  3.8299269800512058e-04  4.8044177636060793e-04  -9.6424772894455404e-02  -1.8966459432352331e-01  -6.2638884844095535e-02  -1.8281299891805103e-01  5.0010729575736127e-04  -1.9419897117211352e-01  -3.6632850330222726e-02  2.0842641448110336e-04  2.8958689953406728e-04  6.5881706985247677e-05  -4.8409616504769350e-04  1.4704577844270111e-03  7.4347114528472424e-04  -1.7734717654741786e-01  8.4185440680675414e-04  2.0216149025141037e-04  4.0007419300134032e-04  -4.6898721184772895e-05  1.5282740322357454e-03  3.3976445928146003e-04  5.0980011629606309e-04  5.9376423578011341e-04  1.7732432804250080e-04  4.9390752799896858e-04  1.6030571248057911e-04  4.3877576212943251e-04  -2.7565524266783235e-02  -1.5968038244482479e-04  5.2500031961884939e-03  -8.8357843016668026e-04  -4.1393663789990875e-03  -1.2980261307600632e-01  6.0860825370002741e-04  -1.1496744109734876e-01  3.4139978930904595e-04  1.9252342471769457e-01  1.3776721586705803e-03  -2.4593576810973940e-02  2.9413867640699009e-03  -1.5549588502624212e-01  1.9488603805977841e-04  8.9774697148033879e-05  2.8175908697914998e-04  -1.8134274360638139e-01  3.0024396163370269e-05  -9.4188525019525040e-03  -2.9420267491888114e-02  9.2542016255887406e-05  -2.5122681205244689e-04  1.3596985120070833e-04  -9.4609971169962490e-02  -2.1816842436991402e-01  -4.2854758128907773e-02  2.8642395232922292e-04  3.2445993161433275e-04  3.2521781325008353e-04  1.0026241061714348e-03  9.7595361496647661e-04  2.5838647068411216e-03  3.5180992446108501e-04  -4.7386067058081315e-02  -8.6692941680114738e-03  3.3639391545890350e-04  -8.8078172382698924e-02  8.5706051776550493e-04  -1.0576163812380357e-02  4.6508403149443981e-04  4.3956151726853528e-04  1.4412465327807785e-03  5.2821816302892382e-05  1.5418261350941766e-04  2.9420137081408648e-04  5.3808949399403898e-04  1.9335028996535694e-04  3.9325161465758195e-04  -2.0657349322932411e-01  7.6960069185063402e-04  1.1852151142123082e-04  3.0032744965713188e-05  -1.1787115458849619e-01  2.4565667415981257e-03  -2.1736701436251502e-01  1.1547328025272852e-04  -1.1317681154208772e-01  1.8310187477424213e-04  8.4400168730853079e-05  3.0633839679270711e-05  1.2855710531336662e-03  4.0167594901870855e-04  3.4361569207292579e-04  3.0715668708901863e-03  5.2835653539812597e-03  1.4336449607565901e-03  1.5841803925252317e-04  1.1271177752383400e-04  -5.9122452497294579e-0