<?xml version="1.0"?>
<VTKFile type="UnstructuredGrid"  version="0.1"  >
<UnstructuredGrid>
<Piece  NumberOfPoints="20054" NumberOfCells="39478">
<Points>
<DataArray  type="Float64"  NumberOfComponents="3"  format="ascii">1 0 0  0.9997998037428526 0.02000880895389431 0  0.9991992951284931 0.04000960653046352 0  0.9981987145960756 0.05999438456007805 0  0.9967984627705549 0.07995514128721501 0  0.9949991003022806 0.09988388457430118 0  0.9928013476425149 0.1197726351017051 0  0.9902060847549715 0.139613429562597 0  0.987214350763483 0.1593983238513969 0  0.9838273435359444 0.1791193962445356 0  0.9800464192046954 0.198768750572253 0  0.9758730916235354 0.2183385193801655 0  0.9713090317615876 0.237820867079336 0  0.9663560670342555 0.2572079930835849 0  0.9610161805715396 0.2764921349327862 0  0.9552915104240066 0.2956655714008991 0  0.9491843487067304 0.3147206255874884 0  0.9426971406815462 0.3336496679914983 0  0.9358324837779861 0.3524451195660473 0  0.9285931265532873 0.3710994547530225 0  0.9209819675918909 0.3896052044962556 0  0.9130020543448703 0.4079549592320781 0  0.9046565819097542 0.4261413718560547 0  0.8959488917512338 0.4441571606647087 0  0.8868824703632656 0.4619951122710622 0  0.8774609478731046 0.4796480844928215 0  0.8676880965878291 0.4971090092120542 0  0.8575678294839372 0.5143708952052096 0  0.8471041986406199 0.5314268309423539 0  0.8363013936173391 0.5482699873544935 0  0.8251637397763597 0.5648936205678837 0  0.8136956965509062 0.5812910746042258 0  0.8019018556596399 0.5974557840456699 0  0.7897869392681683 0.6133812766635599 0  0.777355798098326 0.6290611760098652 0  0.7646134094859813 0.6444892039702628 0  0.7515648753881492 0.6596591832778468 0  0.7382154203402046 0.6745650399864606 0  0.7245703893640189 0.6892008059026586 0  0.7106352458278521 0.7035606209753273 0  0.6964155692588616 0.7176387356420051 0  0.6819170531091018 0.7314295131309636 0  0.6671455024759069 0.7449274317181303 0  0.6521068317775753 0.7581270869379442 0  0.6368070623852795 0.7710231937472638 0  0.6212523202121545 0.7836105886414595 0  0.6054488332605282 0.795884231721841 0  0.5894029291282759 0.8078392087135958 0  0.5731210324752972 0.8194707329334278 0  0.5566096624511305 0.8307741472061095 0  0.5398754300847343 0.8417449257291802 0  0.5229250356374803 0.8523786758850435 0  0.5057652659204196 0.8626711399997378 0  0.4884029915768944 0.8726181970476778 0  0.4708451643315825 0.8822158643016828 0  0.45309881420708 0.8914602989276292 0  0.4351710467091336 0.9003477995230937 0  0.4170690399816468 0.9088748075993677 0  0.398800041932607 0.9170379090062476 0  0.3803713673320772 0.9248338352990368 0  0.3617903948834157 0.9322594650472057 0  0.3430645642688987 0.9393118250841893 0  0.3242013731709288 0.9459880916978206 0  0.3052083742700172 0.952285591760924 0  0.2860931722207478 0.9582018038016155 0  0.2668634206069304 0.963734359012881 0  0.2475268188771628 0.9688810422010291 0  0.2280911092620296 0.9736397926726377 0  0.2085640736741707 0.9780087050596407 0  0.1889535305924618 0.9819860300822225 0  0.1692673319315541 0.9855701752492174 0  0.1495133598980264 0.9887597054957302 0  0.1296995238344084 0.9915533437577263 0  0.1098337570523395 0.9939499714833577 0  0.08992401365612977 0.9959486290808237 0  0.06997826535799723 0.9975485163025836 0  0.05000449828625179 0.9987489925657699 0  0.03001070978771124 0.9995495772086734 0  0.01000490522562346 0.9999499496831961 0  -0.01000490522562333 0.9999499496831961 0  -0.03001070978771133 0.9995495772086734 0  -0.05000449828625144 0.9987489925657699 0  -0.06997826535799688 0.9975485163025836 0  -0.08992401365612987 0.9959486290808237 0  -0.1098337570523394 0.9939499714833577 0  -0.1296995238344082 0.9915533437577263 0  -0.1495133598980262 0.9887597054957303 0  -0.1692673319315537 0.9855701752492174 0  -0.1889535305924614 0.9819860300822226 0  -0.2085640736741705 0.9780087050596407 0  -0.2280911092620295 0.9736397926726377 0  -0.2475268188771627 0.9688810422010291 0  -0.2668634206069302 0.9637343590128811 0  -0.2860931722207475 0.9582018038016156 0  -0.3052083742700173 0.9522855917609239 0  -0.3242013731709289 0.9459880916978205 0  -0.3430645642688986 0.9393118250841894 0  -0.3617903948834154 0.9322594650472058 0  -0.380371367332077 0.924833835299037 0  -0.3988000419326071 0.9170379090062476 0  -0.4170690399816465 0.9088748075993678 0  -0.4351710467091335 0.9003477995230939 0  -0.4530988142070799 0.8914602989276292 0  -0.4708451643315824 0.8822158643016829 0  -0.4884029915768945 0.8726181970476778 0  -0.5057652659204197 0.8626711399997378 0  -0.5229250356374801 0.8523786758850437 0  -0.5398754300847342 0.8417449257291804 0  -0.5566096624511303 0.8307741472061098 0  -0.5731210324752971 0.8194707329334279 0  -0.589402929128276 0.8078392087135957 0  -0.6054488332605281 0.7958842317218411 0  -0.6212523202121542 0.7836105886414597 0  -0.6368070623852793 0.7710231937472639 0  -0.652106831777575 0.7581270869379444 0  -0.6671455024759069 0.7449274317181304 0  -0.6819170531091018 0.7314295131309636 0  -0.6964155692588616 0.7176387356420052 0  -0.7106352458278521 0.7035606209753273 0  -0.7245703893640187 0.6892008059026588 0  -0.7382154203402043 0.6745650399864608 0  -0.751564875388149 0.6596591832778469 0  -0.7646134094859813 0.6444892039702628 0  -0.7773557980983258 0.6290611760098654 0  -0.7897869392681683 0.6133812766635599 0  -0.8019018556596398 0.59745578404567 0  -0.8136956965509062 0.5812910746042258 0  -0.8251637397763595 0.5648936205678839 0  -0.836301393617339 0.5482699873544935 0  -0.8471041986406197 0.5314268309423542 0  -0.8575678294839372 0.5143708952052097 0  -0.8676880965878292 0.497109009212054 0  -0.8774609478731045 0.4796480844928216 0  -0.8868824703632656 0.4619951122710621 0  -0.8959488917512338 0.4441571606647088 0  -0.904656581909754 0.426141371856055 0  -0.9130020543448703 0.4079549592320783 0  -0.920981967591891 0.3896052044962555 0  -0.9285931265532872 0.3710994547530226 0  -0.9358324837779861 0.3524451195660473 0  -0.9426971406815462 0.3336496679914984 0  -0.9491843487067303 0.3147206255874888 0  -0.9552915104240065 0.2956655714008993 0  -0.9610161805715396 0.2764921349327862 0  -0.9663560670342555 0.2572079930835851 0  -0.9713090317615876 0.2378208670793361 0  -0.9758730916235353 0.2183385193801658 0  -0.9800464192046954 0.198768750572253 0  -0.9838273435359444 0.1791193962445354 0  -0.987214350763483 0.159398323851397 0  -0.9902060847549714 0.1396134295625972 0  -0.9928013476425149 0.1197726351017052 0  -0.9949991003022804 0.09988388457430147 0  -0.9967984627705549 0.07995514128721509 0  -0.9981987145960756 0.05999438456007793 0  -0.9991992951284931 0.04000960653046362 0  -0.9997998037428526 0.02000880895389464 0  -1 1.224646799147353e-16 0  -0.9997998037428526 -0.0200088089538944 0  -0.9991992951284931 -0.04000960653046338 0  -0.9981987145960756 -0.05999438456007812 0  -0.9967984627705549 -0.07995514128721484 0  -0.9949991003022806 -0.09988388457430078 0  -0.9928013476425149 -0.1197726351017049 0  -0.9902060847549715 -0.1396134295625965 0  -0.9872143507634831 -0.1593983238513963 0  -0.9838273435359444 -0.1791193962445356 0  -0.9800464192046953 -0.1987687505722532 0  -0.9758730916235354 -0.2183385193801655 0  -0.9713090317615876 -0.2378208670793363 0  -0.9663560670342556 -0.2572079930835848 0  -0.9610161805715396 -0.276492134932786 0  -0.9552915104240066 -0.2956655714008991 0  -0.9491843487067305 -0.3147206255874881 0  -0.9426971406815464 -0.3336496679914978 0  -0.9358324837779862 -0.3524451195660471 0  -0.9285931265532875 -0.371099454753022 0  -0.9209819675918909 -0.3896052044962557 0  -0.9130020543448704 -0.407954959232078 0  -0.9046565819097541 -0.4261413718560548 0  -0.8959488917512338 -0.4441571606647086 0  -0.8868824703632655 -0.4619951122710623 0  -0.8774609478731046 -0.4796480844928214 0  -0.8676880965878293 -0.4971090092120538 0  -0.8575678294839373 -0.5143708952052095 0  -0.84710419864062 -0.5314268309423537 0  -0.8363013936173395 -0.5482699873544929 0  -0.8251637397763596 -0.5648936205678838 0  -0.8136956965509061 -0.5812910746042259 0  -0.8019018556596399 -0.5974557840456699 0  -0.7897869392681682 -0.61338127666356 0  -0.777355798098326 -0.6290611760098652 0  -0.7646134094859816 -0.6444892039702625 0  -0.7515648753881492 -0.6596591832778468 0  -0.7382154203402048 -0.6745650399864603 0  -0.7245703893640192 -0.6892008059026583 0  -0.7106352458278522 -0.7035606209753272 0  -0.6964155692588621 -0.7176387356420046 0  -0.6819170531091017 -0.7314295131309637 0  -0.667145502475907 -0.7449274317181303 0  -0.6521068317775756 -0.758127086937944 0  -0.6368070623852792 -0.7710231937472641 0  -0.6212523202121544 -0.7836105886414596 0  -0.6054488332605283 -0.795884231721841 0  -0.5894029291282762 -0.8078392087135956 0  -0.5731210324752977 -0.8194707329334274 0  -0.5566096624511304 -0.8307741472061095 0  -0.5398754300847344 -0.8417449257291802 0  -0.5229250356374798 -0.8523786758850437 0  -0.5057652659204195 -0.8626711399997379 0  -0.4884029915768943 -0.872618197047678 0  -0.4708451643315825 -0.8822158643016828 0  -0.4530988142070805 -0.8914602989276289 0  -0.4351710467091333 -0.900347799523094 0  -0.4170690399816467 -0.9088748075993677 0  -0.3988000419326073 -0.9170379090062475 0  -0.3803713673320777 -0.9248338352990366 0  -0.3617903948834162 -0.9322594650472055 0  -0.3430645642688988 -0.9393118250841893 0  -0.3242013731709283 -0.9459880916978207 0  -0.3052083742700169 -0.9522855917609241 0  -0.2860931722207477 -0.9582018038016155 0  -0.2668634206069305 -0.963734359012881 0  -0.2475268188771631 -0.968881042201029 0  -0.2280911092620301 -0.9736397926726376 0  -0.2085640736741706 -0.9780087050596407 0  -0.1889535305924619 -0.9819860300822225 0  -0.1692673319315544 -0.9855701752492173 0  -0.1495133598980269 -0.9887597054957302 0  -0.1296995238344092 -0.9915533437577262 0  -0.1098337570523396 -0.9939499714833577 0  -0.08992401365612945 -0.9959486290808237 0  -0.06997826535799691 -0.9975485163025836 0  -0.05000449828625168 -0.9987489925657699 0  -0.030010709787
[...]
<PointData  Scalars="Displacement"> 
<DataArray  type="Float64"  Name="Displacement"  format="ascii">0.0000000000000000e+00  0.0000000000000000e+00  0.0000000000000000e+00  0.0000000000000000e+00  0.0000000000000000e+00  0.0000000000000000e+00  0.0000000000000000e+00  0.0000000000000000e+00  0.0000000000000000e+00  0.0000000000000000e+00  0.0000000000000000e+00  0.0000000000000000e+00  0.0000000000000000e+00  0.0000000000000000e+00  0.0000000000000000e+00  0.0000000000000000e+00  0.0000000000000000e+00  0.0000000000000000e+00  0.0000000000000000e+00  0.0000000000000000e+00  0.0000000000000000e+00  0.0000000000000000e+00  0.0000000000000000e+00  0.0000000000000000e+00  0.0000000000000000e+00  0.0000000000000000e+00  0.0000000000000000e+00  0.0000000000000000e+00  0.0000000000000000e+00  0.0000000000000000e+00  0.0000000000000000e+00  0.0000000000000000e+00  0.0000000000000000e+00  0.0000000000000000e+00  0.0000000000000000e+00  0.0000000000000000e+00  0.0000000000000000e+00  0.0000000000000000e+00  0.0000000000000000e+00  0.0000000000000000e+00  0.0000000000000000e+00  0.0000000000000000e+00  0.0000000000000000e+00  0.0000000000000000e+00  0.0000000000000000e+00  0.0000000000000000e+00  0.0000000000000000e+00  0.0000000000000000e+00  0.0000000000000000e+00  0.0000000000000000e+00  0.0000000000000000e+00  0.0000000000000000e+00  0.0000000000000000e+00  0.0000000000000000e+00  0.0000000000000000e+00  0.0000000000000000e+00  0.0000000000000000e+00  0.0000000000000000e+00  0.0000000000000000e+00  0.0000000000000000e+00  0.0000000000000000e+00  0.0000000000000000e+00  0.0000000000000000e+00  0.0000000000000000e+00  0.0000000000000000e+00  0.0000000000000000e+00  0.0000000000000000e+00  0.0000000000000000e+00  0.0000000000000000e+00  0.0000000000000000e+00  0.0000000000000000e+00  0.0000000000000000e+00  0.0000000000000000e+00  0.0000000000000000e+00  0.0000000000000000e+00  0.0000000000000000e+00  0.0000000000000000e+00  0.0000000000000000e+00  0.0000000000000000e+00  0.0000000000000000e+00  0.0000000000000000e+00  0.0000000000000000e+00  0.0000000000000000e+00  0.0000000000000000e+00  0.0000000000000000e+00  0.0000000000000000e+00  0.0000000000000000e+00  0.0000000000000000e+00  0.0000000000000000e+00  0.0000000000000000e+00  0.0000000000000000e+00  0.0000000000000000e+00  0.0000000000000000e+00  0.0000000000000000e+00  0.0000000000000000e+00  0.0000000000000000e+00  0.0000000000000000e+00  0.0000000000000000e+00  0.0000000000000000e+00  0.0000000000000000e+00  0.0000000000000000e+00  0.0000000000000000e+00  0.0000000000000000e+00  0.0000000000000000e+00  0.0000000000000000e+00  0.0000000000000000e+00  0.0000000000000000e+00  0.0000000000000000e+00  0.0000000000000000e+00  0.0000000000000000e+00  0.0000000000000000e+00  0.0000000000000000e+00  0.0000000000000000e+00  0.0000000000000000e+00  0.0000000000000000e+00  0.0000000000000000e+00  0.0000000000000000e+00  0.0000000000000000e+00  0.0000000000000000e+00  0.0000000000000000e+00  0.0000000000000000e+00  0.0000000000000000e+00  0.0000000000000000e+00  0.0000000000000000e+00  0.0000000000000000e+00  0.0000000000000000e+00  0.0000000000000000e+00  0.0000000000000000e+00  0.0000000000000000e+00  0.0000000000000000e+00  0.0000000000000000e+00  0.0000000000000000e+00  0.0000000000000000e+00  0.0000000000000000e+00  0.0000000000000000e+00  0.0000000000000000e+00  0.0000000000000000e+00  0.0000000000000000e+00  0.0000000000000000e+00  0.0000000000000000e+00  0.0000000000000000e+00  0.0000000000000000e+00  0.0000000000000000e+00  0.0000000000000000e+00  0.0000000000000000e+00  0.0000000000000000e+00  0.0000000000000000e+00  0.0000000000000000e+00  0.0000000000000000e+00  0.0000000000000000e+00  0.0000000000000000e+00  0.0000000000000000e+00  0.0000000000000000e+00  0.0000000000000000e+00  0.0000000000000000e+00  0.0000000000000000e+00  0.0000000000000000e+00  0.0000000000000000e+00  0.0000000000000000e+00  0.0000000000000000e+00  0.0000000000000000e+00  0.0000000000000000e+00  0.0000000000000000e+00  0.0000000000000000e+00  0.0000000000000000e+00  0.0000000000000000e+00  0.0000000000000000e+00  0.0000000000000000e+00  0.0000000000000000e+00  0.0000000000000000e+00  0.0000000000000000e+00  0.0000000000000000e+00  0.0000000000000000e+00  0.0000000000000000e+00  0.0000000000000000e+00  0.0000000000000000e+00  0.0000000000000000e+00  0.0000000000000000e+00  0.0000000000000000e+00  0.0000000000000000e+00  0.0000000000000000e+00  0.0000000000000000e+00  0.0000000000000000e+00  0.0000000000000000e+00  0.0000000000000000e+00  0.0000000000000000e+00  0.0000000000000000e+00  0.0000000000000000e+00  0.0000000000000000e+00  0.0000000000000000e+00  0.0000000000000000e+00  0.0000000000000000e+00  0.0000000000000000e+00  0.0000000000000000e+00  0.0000000000000000e+00  0.0000000000000000e+00  0.0000000000000000e+00  0.0000000000000000e+00  0.0000000000000000e+00  0.0000000000000000e+00  0.0000000000000000e+00  0.0000000000000000e+00  0.0000000000000000e+00  0.0000000000000000e+00  0.0000000000000000e+00  0.0000000000000000e+00  0.0000000000000000e+00  0.0000000000000000e+00  0.0000000000000000e+00  0.0000000000000000e+00  0.0000000000000000e+00  0.0000000000000000e+00  0.0000000000000000e+00  0.0000000000000000e+00  0.0000000000000000e+00  0.0000000000000000e+00  0.0000000000000000e+00  0.0000000000000000e+00  0.0000000000000000e+00  0.0000000000000000e+00  0.0000000000000000e+00  0.0000000000000000e+00  0.0000000000000000e+00  0.0000000000000000e+00  0.0000000000000000e+00  0.0000000000000000e+00  0.0000000000000000e+00  0.0000000000000000e+00  0.0000000000000000e+00  0.0000000000000000e+00  0.0000000000000000e+00  0.0000000000000000e+00  0.0000000000000000e+00  0.0000000000000000e+00  0.0000000000000000e+00  0.0000000000000000e+00  0.0000000000000000e+00  0.0000000000000000e+00  0.0000000000000000e+00  0.0000000000000000e+00  0.0000000000000000e+00  0.0000000000000000e+00  0.0000000000000000e+00  0.0000000000000000e+00  0.0000000000000000e+00  0.0000000000000000e+00  0.0000000000000000e+00  0.0000000000000000e+00  0.0000000000000000e+00  0.0000000000000000e+00  0.0000000000000000e+00  0.0000000000000000e+00  0.0000000000000000e+00  0.0000000000000000e+00  0.0000000000000000e+00  0.0000000000000000e+00  0.0000000000000000e+00  0.0000000000000000e+00  0.0000000000000000e+00  0.0000000000000000e+00  0.0000000000000000e+00  0.0000000000000000e+00  0.0000000000000000e+00  0.0000000000000000e+00  0.0000000000000000e+00  0.0000000000000000e+00  0.0000000000000000e+00  0.0000000000000000e+00  0.0000000000000000e+00  0.0000000000000000e+00  0.0000000000000000e+00  0.0000000000000000e+00  0.0000000000000000e+00  0.0000000000000000e+00  0.0000000000000000e+00  0.0000000000000000e+00  0.0000000000000000e+00  0.0000000000000000e+00  0.0000000000000000e+00  0.0000000000000000e+00  0.0000000000000000e+00  0.0000000000000000e+00  0.0000000000000000e+00  0.0000000000000000e+00  0.0000000000000000e+00  0.0000000000000000e+00  0.0000000000000000e+00  0.0000000000000000e+00  0.0000000000000000e+00  0.0000000000000000e+00  0.0000000000000000e+00  0.0000000000000000e+00  0.0000000000000000e+00  0.0000000000000000e+00  0.0000000000000000e+00  0.0000000000000000e+00  0.0000000000000000e+00  0.0000000000000000e+00  0.0000000000000000e+00  0.0000000000000000e+00  0.0000000000000000e+00  0.0000000000000000e+00  0.0000000000000000e+00  0.0000000000000000e+00  0.0000000000000000e+00  0.0000000000000000e+00  0.0000000000000000e+00  0.0000000000000000e+00  0.0000000000000000e+00  0.0000000000000000e+00  0.0000000000000000e+00  0.0000000000000000e+00  0.0000000000000000e+00  0.0000000000000000e+00  2.1913638468393603e-03  3.0340887244465161e-03  3.0337296370049009e-03  3.0334601728644571e-03  3.0253868454062872e-03  3.0285667325153126e-03  2.0999336622199798e-03  1.5734744914071427e-03  1.4946103751616792e-03  1.3532082280525771e-03  1.3501322826743687e-03  9.6026239039728716e-03  1.1775035437071384e-03  1.1788961348675262e-03  1.0038636303079341e-02  1.0374571164627221e-02  1.0106329144783108e-03  1.0304786588000367e-03  1.0064806052284068e-03  9.9335371850744754e-04  9.6198313078139962e-04  9.5832955758774416e-04  9.7065025039567944e-04  5.6925429056180381e-03  5.6714677600358402e-03  1.1200624107910898e-02  1.0514247240326013e-03  8.2604275753072763e-04  8.5564203095475427e-04  3.4912759339426232e-03  8.4752295513331832e-04  1.0682626070595018e-02  1.1122071917390740e-02  3.2072023953602451e-03  7.8487070500845668e-04  7.0457743378795658e-04  6.8762525108302859e-04  6.8252039394699877e-04  6.8167388445905552e-04  2.2860414705158454e-03  2.2123937191360428e-03  2.1317298842737347e-03  2.1036886604270185e-03  1.0490904559150161e-02  6.5605089821921714e-04  6.4205652880791456e-04  6.2887034765687260e-04  6.2877408588025107e-04  1.8871302835473604e-03  1.9364223857860389e-03  1.2774502962203131e-03  2.3136365783746546e-03  2.0429132353686832e-03  3.6849673548924804e-03  5.6962953104743117e-04  1.0038338681210388e-02  6.3114712369259705e-04  5.6621251456417249e-04  8.6499013102284590e-03  5.4941084425981328e-04  5.6201348901090706e-04  1.3739437688969601e-03  5.4618235481983452e-04  5.6732474119078411e-04  8.6449310246333750e-03  1.1225727610266380e-02  5.9976310134767976e-03  3.6701293099978879e-03  6.1576841440642441e-03  8.9421478901677981e-03  8.7189194377985859e-03  1.9094868663458036e-03  1.6141256180843160e-03  1.6907385718310959e-03  1.6883494082610177e-03  7.3941126173345520e-03  5.4082011098412121e-04  5.0284097757215401e-03  7.4862794694466224e-03  1.4144882282074661e-03  5.0958761545760864e-04  5.4978266006372543e-03  4.9333248541171741e-04  5.0291931869828510e-04  4.8118475488651593e-04  8.2628245720994271e-03  4.8912397606044379e-04  4.7349906140193828e-04  4.7782764141240941e-04  6.2691203954933763e-03  1.2967860346904635e-03  4.6494597653341780e-04  1.6258303414917429e-03  4.5767072600052188e-04  1.2992887074656299e-03  1.0278748372978520e-02  4.8966048844225891e-04  4.4871681560810578e-04  1.2558899545095069e-03  1.1611591524075160e-03  1.4581959886150332e-03  1.2541621479017502e-03  4.4222235577076678e-04  4.0427848400481801e-03  2.4356641721394829e-03  2.4224699743620702e-03  4.4341712125813603e-03  1.1568597179771125e-03  1.2232049188628258e-03  4.0713958747160624e-04  4.6810376229964980e-03  3.9783820925525193e-04  4.2000501297561683e-04  1.8558153397625966e-03  1.7769290913228289e-03  1.1359093855054423e-03  3.9431100506953973e-04  4.3811065589240166e-04  4.2834495740964618e-04  8.8942186566856735e-03  4.1574853061178548e-03  9.0233740739818281e-04  1.0273484060482415e-02  5.6047663205044309e-04  1.0504291210435438e-03  1.3431827333970957e-03  4.2953422777012136e-04  3.8075598429310263e-04  1.0189920594917542e-03  1.0305041979177954e-03  1.3609979646664744e-03  1.0612949362969167e-03  1.6115267149825999e-03  3.6123887799425808e-03  1.8898120404510922e-03  1.1612500508130417e-03  4.1748752190083838e-04  1.0540790203355214e-02  6.3859506081682593e-03  9.0715657959869606e-03  6.3058167770742779e-03  1.0568706146255267e-02  8.3630485612452680e-04  4.7011131534760078e-03  1.8480632209746126e-03  8.4154920729206885e-04  8.6564219293127308e-04  9.7927077424298133e-03  1.0551618134856888e-02  1.5143696248152477e-03  3.4355415107092930e-04  1.8126276781343159e-03  6.2660737803940658e-03  9.1784806674131362e-04  9.1838684033373498e-04  5.6967351710959281e-04  3.2581003514644484e-04  8.6766621137991326e-04  3.5330981973418082e-04  3.3426148981729776e-04  3.3482400737295479e-04  8.4588180053548170e-04  1.4188085073081197e-03  3.5599744326821791e-04  7.3086611143057694e-04  2.8388618324782251e-03  9.2300007177642019e-04  4.3830876032927636e-04  3.2865671898018808e-04  8.4031467579535554e-04  1.9606004789956633e-03  5.7789077036843398e-03  8.4500299570059280e-04  5.9041902209163184e-03  3.1874606442863583e-04  3.8036317123617044e-03  3.0838192036400657e-04  9.7278113329405248e-04  3.1880285935124145e-04  3.2981084124271772e-03  8.0860915731916828e-04  2.5769633455099018e-03  1.8909245085197729e-03  1.1285193439633768e-02  3.5045963604692619e-04  2.3147489499907303e-03  1.4992685942903665e-03  3.2410849364770166e-03  3.1904833877663972e-04  6.6257784225458609e-04  3.2698821333814241e-04  1.0515041673341141e-02  3.0614000920219049e-04  3.2440784445671693e-04  2.5535447914059157e-03  8.1816948023834754e-03  9.4505639212526943e-04  7.8018002212895622e-04  2.8252697736538932e-03  1.4118413855273876e-03  1.7918178075226620e-03  1.9862383447583763e-03  3.0919685854451265e-03  1.4718798021812357e-03  1.7857711436044632e-03  7.7948172889907342e-04  7.7155725962195292e-04  1.1039228169767944e-02  4.9398223054420353e-04  7.7373928140227904e-04  1.0000307062386980e-03  1.0859488267608538e-02  5.4499457916328282e-03  3.0482183487149050e-04  2.9672765827357957e-04  8.5544937417655030e-04  3.4215224977593782e-03  3.1046985776459336e-04  1.5088584080236406e-03  1.3724874991594737e-03  5.8719989915104436e-04  1.2748982418941074e-03  5.0169216090264436e-03  1.5761284446501125e-03  1.3846502530385683e-03  3.1835814794986810e-04  1.1605459433657937e-03  2.8018543600130913e-04  1.3770535173681521e-03  2.9565163997072319e-04  3.8592567369559835e-04  3.2619846823951008e-04  2.7821024542129872e-04  6.3604691574187309e-04  2.8849127098025152e-04  3.8317274058305368e-03  1.8164135738586401e-03  6.9821637219393115e-04  7.1295265271307585e-04  1.0814211101943576e-02  9.1753668710614460e-03  1.4889084483295570e-03  1.6502271396987823e-03  3.9026311327942139e-04  2.9463579463983908e-03  2.7408427667431704e-04  2.8055658158913384e-04  2.7713215350297566e-04  6.5105270747325911e-03  3.3612123324460326e-03  2.1979513481033977e-03  2.2705048949782391e-03  1.0231761327804617e-02  5.4912589345632130e-03  6.7205405952139221e-04  5.5900149519339058e-03  8.7254225096515959e-04  2.3660434181289216e-03  3.5573217614256173e-04  2.6966743468430788e-04  3.6465149122490880e-04  1.1703427605125230e-03  7.1616407746100011e-04  1.9194936976529692e-03  3.4788110980024547e-03  5.2988104630792184e-03  6.3851907234499224e-04  4.1319561227550866e-04  3.6395207823972526e-04  1.9233425387076759e-03  2.6121502361677523e-04  6.3541979785886838e-03  3.6245670410762891e-03  9.5913003136565680e-04  7.7521837356986172e-04  1.1877440543532371e-03  7.7311355592835649e-03  8.5418579208193738e-03  6.1228117944352413e-03  7.1372285579848725e-03  9.0064201006310827e-03  1.1220599901027037e-02  1.1264540570262778e-02  1.3985474884073196e-03  1.1911701884637759e-03  1.0089459904720111e-03  9.1048262464576250e-03  2.7770446150478316e-04  7.2347273339439379e-04  5.0143555924602309e-03  1.1300486030357300e-02  3.6650277940064348e-03  1.4713912164522182e-03  2.0962019247602586e-03  1.1092082151384051e-02  2.5148273447377122e-04  2.2796259016784255e-03  2.5795929160576920e-04  2.6351586056594796e-04  2.6970846413938959e-04  1.0211967910409779e-02  4.9336442392582175e-03  8.4828440110088187e-03  1.1015573182029528e-02  1.2633503963117546e-03  1.5947902549071490e-03  1.0709368439969856e-03  1.8385622771292219e-03  1.3904572563673424e-03  1.4950993743250297e-03  2.3278161598263712e-03  1.4189098797198019e-03  9.0469435457871360e-03  9.4132569873758289e-04  1.1261765906496888e-02  1.1194210594830651e-02  1.9586191337339124e-03  1.0676152373222422e-03  1.2152765884951803e-03  2.4959678660990063e-04  8.0337848790000826e-04  8.4862599165938556e-04  2.4494682067313466e-04  7.1984400299503265e-03  2.4249573380436085e-04  2.3774969226691604e-04  6.3231534727084006e-04  4.9503884596485441e-03  6.3798656472110046e-03  1.0037800717284422e-02  2.4282968431826074e-04  1.0786865106045291e-03  1.4113186463050335e-03  2.7152470938421008e-03  7.6194482303462187e-03  9.9730274060976778e-04  2.9424275714522007e-03  7.2349455268570289e-03  1.1229312235291214e-02  1.2736391309985855e-03  7.6051539063979180e-04  3.0109176872353716e-03  5.9243722797332221e-04  5.5923946823177497e-04  1.2732356826879560e-03  2.4615344243098035e-04  7.4509519213574978e-04  8.4651606490392345e-04  2.4243437461860068e-04  1.2536123786481064e-03  1.2817756034127581e-03  2.3707753697734335e-04  5.9110719857745288e-04  2.2842547081968181e-04  6.7578900339838107e-04  5.9731422239275270e-04  2.1793385104022138e-03  4.3362827456310954e-03  5.7925735741326317e-04  1.0105292096680915e-02  1.1014737612517608e-02  9.3555706781001634e-04  2.3972821409676062e-04  1.7783284418943686e-03  5.7656104764593566e-04  8.2901053502390312e-03  5.7428165620027223e-04  1.1569173805038458e-03  7.0496264462350956e-03  7.2944178104475291e-04  2.2673459355906407e-04  3.2891614519498262e-04  7.3379612220728064e-04  6.3930332960025838e-03  4.0904235186156037e-03  1.1510713588113706e-03  3.1954695420969854e-04  9.3632182338713663e-03  1.7437824538538592e-03  2.2766226040019815e-04  2.5193824783125815e-03  2.1996223209729099e-04  6.7828671002861018e-04  2.9479561032931204e-03  2.5409746647097280e-04  1.1229413225216769e-02  2.1637113919448231e-04  7.3706993731357672e-04  2.2711762862285534e-04  4.8564695061833248e-03  1.9299728632290922e-03  1.2709046568645721e-03  1.9688080343465402e-03  2.2442258363474492e-04  6.7985957660633429e-04  4.8944458964427333e-03  3.1840696257293529e-04  1.6685793179638706e-03  9.7353920435845262e-04  2.2430857333010184e-04  2.2410162752114986e-04  2.2727352709987782e-03  5.2435404696476431e-04  3.6822137938818350e-03  9.9751636002251218e-04  2.3418434511559508e-03  1.8876674728727767e-03  2.1678838067032158e-04  6.4628102164526421e-04  7.2588541010502276e-04  5.3343277133281156e-04  5.4353389530299365e-04  4.0811094061787576e-03  6.2496160144322830e-03  1.1282794000577944e-02  6.0412089111773126e-03  7.0485132709655063e-04  1.0105698685855714e-02  3.1472780178382798e-03  6.6353797377617055e-04  2.0908169038605197e-04  3.2915460919833751e-04  1.6094353417440775e-03  1.3724312385334076e-03  1.0150203921414787e-03  5.8458540161925145e-03  1.0601898369832841e-03  2.1164348461647837e-04  2.0502603192102835e-04  2.7903562368613585e-04  1.3799650785849570e-03  5.9215351552967970e-04  9.4913899752182423e-04  5.4448279971990596e-04  6.2926383961357292e-04  6.2515012391397651e-04  1.6090905206271485e-03  7.0919328907800448e-04  2.9951954536315594e-03  1.7786321184801467e-03  2.1136904997317153e-03  1.7493301130832924e-03  2.5941669730128636e-03  4.6710813048522820e-03  5.3107500755395680e-04  4.3869302939460956e-03  8.8878332350056778e-04  7.7155946107644513e-03  1.4896018741002816e-03  2.9447179009205716e-03  2.3980132327812145e-03  5.2575737848204679e-03  5.1141172806818725e-04  2.0875935238466294e-04  2.0771911577499789e-04  1.0448095704584621e-02  1.2503201536165731e-03  2.6865552617853870e-03  3.0369916106502597e-03  4.2490702913324874e-04  1.7906653196273915e-03  2.0484701571517948e-04  1.1272093043319465e-02  8.3932586296532243e-03  3.2427559570016263e-03  9.3734796915337620e-04  6.2880206751997120e-04  5.3052757759579838e-04  1.0368760985744957e-03  1.0784782427010278e-03  1.9411894192348695e-03  4.8644246836954537e-04  3.2978611802467585e-03  2.6703710605257367e-03  7.1595841849365059e-04  1.1286955135087687e-02  1.0899463846547721e-03  2.7078091989982300e-03  1.1820984289952338e-03  1.5605439248016775e-03  1.3967062344203409e-03  9.1905336379856568e-04  1.9360231977600968e-04  5.9323620540479682e-04  1.9835890106317729e-04  4.8666752134894848e-04  3.4809714726020334e-04  7.0793347551490098e-03  7.9280318089455879e-04  1.8528338373559384e-03  9.0995496982854281e-04  4.4543937032018536e-03  1.9682717250904236e-03  8.0962953249991334e-03  3.3748549726233509e-04  4.3590063085532449e-03  3.0207924288306616e-04  1.9070158089647016e-04  2.2439239530447607e-04  2.4516052005744775e-03  4.7103540199860353e-04  1.9407047697676390e-04  2.3856778938334618e-03  2.2636654331857266e-03  1.5108925014673796e-03  8.9203901168129977e-04  4.7740498402222998e-04  8.9582469961586896e-04  1.0259492742820200e-03  1.4520610942714289e-03  1.7862000576295940e-03  1.4591532862783428e-03  2.3472105229743892e-03  8.0883156815279855e-03  1.0433005436206253e-03  6.0