<?xml version="1.0"?>
<VTKFile type="UnstructuredGrid"  version="0.1"  >
<UnstructuredGrid>
<Piece  NumberOfPoints="20054" NumberOfCells="39478">
<Points>
<DataArray  type="Float64"  NumberOfComponents="3"  format="ascii">1 0 0  0.9997998037428526 0.02000880895389431 0  0.9991992951284931 0.04000960653046352 0  0.9981987145960756 0.05999438456007805 0  0.9967984627705549 0.07995514128721501 0  0.9949991003022806 0.09988388457430118 0  0.9928013476425149 0.1197726351017051 0  0.9902060847549715 0.139613429562597 0  0.987214350763483 0.1593983238513969 0  0.9838273435359444 0.1791193962445356 0  0.9800464192046954 0.198768750572253 0  0.9758730916235354 0.2183385193801655 0  0.9713090317615876 0.237820867079336 0  0.9663560670342555 0.2572079930835849 0  0.9610161805715396 0.2764921349327862 0  0.9552915104240066 0.2956655714008991 0  0.9491843487067304 0.3147206255874884 0  0.9426971406815462 0.3336496679914983 0  0.9358324837779861 0.3524451195660473 0  0.9285931265532873 0.3710994547530225 0  0.9209819675918909 0.3896052044962556 0  0.9130020543448703 0.4079549592320781 0  0.9046565819097542 0.4261413718560547 0  0.8959488917512338 0.4441571606647087 0  0.8868824703632656 0.4619951122710622 0  0.8774609478731046 0.4796480844928215 0  0.8676880965878291 0.4971090092120542 0  0.8575678294839372 0.5143708952052096 0  0.8471041986406199 0.5314268309423539 0  0.8363013936173391 0.5482699873544935 0  0.8251637397763597 0.5648936205678837 0  0.8136956965509062 0.5812910746042258 0  0.8019018556596399 0.5974557840456699 0  0.7897869392681683 0.6133812766635599 0  0.777355798098326 0.6290611760098652 0  0.7646134094859813 0.6444892039702628 0  0.7515648753881492 0.6596591832778468 0  0.7382154203402046 0.6745650399864606 0  0.7245703893640189 0.6892008059026586 0  0.7106352458278521 0.7035606209753273 0  0.6964155692588616 0.7176387356420051 0  0.6819170531091018 0.7314295131309636 0  0.6671455024759069 0.7449274317181303 0  0.6521068317775753 0.7581270869379442 0  0.6368070623852795 0.7710231937472638 0  0.6212523202121545 0.7836105886414595 0  0.6054488332605282 0.795884231721841 0  0.5894029291282759 0.8078392087135958 0  0.5731210324752972 0.8194707329334278 0  0.5566096624511305 0.8307741472061095 0  0.5398754300847343 0.8417449257291802 0  0.5229250356374803 0.8523786758850435 0  0.5057652659204196 0.8626711399997378 0  0.4884029915768944 0.8726181970476778 0  0.4708451643315825 0.8822158643016828 0  0.45309881420708 0.8914602989276292 0  0.4351710467091336 0.9003477995230937 0  0.4170690399816468 0.9088748075993677 0  0.398800041932607 0.9170379090062476 0  0.3803713673320772 0.9248338352990368 0  0.3617903948834157 0.9322594650472057 0  0.3430645642688987 0.9393118250841893 0  0.3242013731709288 0.9459880916978206 0  0.3052083742700172 0.952285591760924 0  0.2860931722207478 0.9582018038016155 0  0.2668634206069304 0.963734359012881 0  0.2475268188771628 0.9688810422010291 0  0.2280911092620296 0.9736397926726377 0  0.2085640736741707 0.9780087050596407 0  0.1889535305924618 0.9819860300822225 0  0.1692673319315541 0.9855701752492174 0  0.1495133598980264 0.9887597054957302 0  0.1296995238344084 0.9915533437577263 0  0.1098337570523395 0.9939499714833577 0  0.08992401365612977 0.9959486290808237 0  0.06997826535799723 0.9975485163025836 0  0.05000449828625179 0.9987489925657699 0  0.03001070978771124 0.9995495772086734 0  0.01000490522562346 0.9999499496831961 0  -0.01000490522562333 0.9999499496831961 0  -0.03001070978771133 0.9995495772086734 0  -0.05000449828625144 0.9987489925657699 0  -0.06997826535799688 0.9975485163025836 0  -0.08992401365612987 0.9959486290808237 0  -0.1098337570523394 0.9939499714833577 0  -0.1296995238344082 0.9915533437577263 0  -0.1495133598980262 0.9887597054957303 0  -0.1692673319315537 0.9855701752492174 0  -0.1889535305924614 0.9819860300822226 0  -0.2085640736741705 0.9780087050596407 0  -0.2280911092620295 0.9736397926726377 0  -0.2475268188771627 0.9688810422010291 0  -0.2668634206069302 0.9637343590128811 0  -0.2860931722207475 0.9582018038016156 0  -0.3052083742700173 0.9522855917609239 0  -0.3242013731709289 0.9459880916978205 0  -0.3430645642688986 0.9393118250841894 0  -0.3617903948834154 0.9322594650472058 0  -0.380371367332077 0.924833835299037 0  -0.3988000419326071 0.9170379090062476 0  -0.4170690399816465 0.9088748075993678 0  -0.4351710467091335 0.9003477995230939 0  -0.4530988142070799 0.8914602989276292 0  -0.4708451643315824 0.8822158643016829 0  -0.4884029915768945 0.8726181970476778 0  -0.5057652659204197 0.8626711399997378 0  -0.5229250356374801 0.8523786758850437 0  -0.5398754300847342 0.8417449257291804 0  -0.5566096624511303 0.8307741472061098 0  -0.5731210324752971 0.8194707329334279 0  -0.589402929128276 0.8078392087135957 0  -0.6054488332605281 0.7958842317218411 0  -0.6212523202121542 0.7836105886414597 0  -0.6368070623852793 0.7710231937472639 0  -0.652106831777575 0.7581270869379444 0  -0.6671455024759069 0.7449274317181304 0  -0.6819170531091018 0.7314295131309636 0  -0.6964155692588616 0.7176387356420052 0  -0.7106352458278521 0.7035606209753273 0  -0.7245703893640187 0.6892008059026588 0  -0.7382154203402043 0.6745650399864608 0  -0.751564875388149 0.6596591832778469 0  -0.7646134094859813 0.6444892039702628 0  -0.7773557980983258 0.6290611760098654 0  -0.7897869392681683 0.6133812766635599 0  -0.8019018556596398 0.59745578404567 0  -0.8136956965509062 0.5812910746042258 0  -0.8251637397763595 0.5648936205678839 0  -0.836301393617339 0.5482699873544935 0  -0.8471041986406197 0.5314268309423542 0  -0.8575678294839372 0.5143708952052097 0  -0.8676880965878292 0.497109009212054 0  -0.8774609478731045 0.4796480844928216 0  -0.8868824703632656 0.4619951122710621 0  -0.8959488917512338 0.4441571606647088 0  -0.904656581909754 0.426141371856055 0  -0.9130020543448703 0.4079549592320783 0  -0.920981967591891 0.3896052044962555 0  -0.9285931265532872 0.3710994547530226 0  -0.9358324837779861 0.3524451195660473 0  -0.9426971406815462 0.3336496679914984 0  -0.9491843487067303 0.3147206255874888 0  -0.9552915104240065 0.2956655714008993 0  -0.9610161805715396 0.2764921349327862 0  -0.9663560670342555 0.2572079930835851 0  -0.9713090317615876 0.2378208670793361 0  -0.9758730916235353 0.2183385193801658 0  -0.9800464192046954 0.198768750572253 0  -0.9838273435359444 0.1791193962445354 0  -0.987214350763483 0.159398323851397 0  -0.9902060847549714 0.1396134295625972 0  -0.9928013476425149 0.1197726351017052 0  -0.9949991003022804 0.09988388457430147 0  -0.9967984627705549 0.07995514128721509 0  -0.9981987145960756 0.05999438456007793 0  -0.9991992951284931 0.04000960653046362 0  -0.9997998037428526 0.02000880895389464 0  -1 1.224646799147353e-16 0  -0.9997998037428526 -0.0200088089538944 0  -0.9991992951284931 -0.04000960653046338 0  -0.9981987145960756 -0.05999438456007812 0  -0.9967984627705549 -0.07995514128721484 0  -0.9949991003022806 -0.09988388457430078 0  -0.9928013476425149 -0.1197726351017049 0  -0.9902060847549715 -0.1396134295625965 0  -0.9872143507634831 -0.1593983238513963 0  -0.9838273435359444 -0.1791193962445356 0  -0.9800464192046953 -0.1987687505722532 0  -0.9758730916235354 -0.2183385193801655 0  -0.9713090317615876 -0.2378208670793363 0  -0.9663560670342556 -0.2572079930835848 0  -0.9610161805715396 -0.276492134932786 0  -0.9552915104240066 -0.2956655714008991 0  -0.9491843487067305 -0.3147206255874881 0  -0.9426971406815464 -0.3336496679914978 0  -0.9358324837779862 -0.3524451195660471 0  -0.9285931265532875 -0.371099454753022 0  -0.9209819675918909 -0.3896052044962557 0  -0.9130020543448704 -0.407954959232078 0  -0.9046565819097541 -0.4261413718560548 0  -0.8959488917512338 -0.4441571606647086 0  -0.8868824703632655 -0.4619951122710623 0  -0.8774609478731046 -0.4796480844928214 0  -0.8676880965878293 -0.4971090092120538 0  -0.8575678294839373 -0.5143708952052095 0  -0.84710419864062 -0.5314268309423537 0  -0.8363013936173395 -0.5482699873544929 0  -0.8251637397763596 -0.5648936205678838 0  -0.8136956965509061 -0.5812910746042259 0  -0.8019018556596399 -0.5974557840456699 0  -0.7897869392681682 -0.61338127666356 0  -0.777355798098326 -0.6290611760098652 0  -0.7646134094859816 -0.6444892039702625 0  -0.7515648753881492 -0.6596591832778468 0  -0.7382154203402048 -0.6745650399864603 0  -0.7245703893640192 -0.6892008059026583 0  -0.7106352458278522 -0.7035606209753272 0  -0.6964155692588621 -0.7176387356420046 0  -0.6819170531091017 -0.7314295131309637 0  -0.667145502475907 -0.7449274317181303 0  -0.6521068317775756 -0.758127086937944 0  -0.6368070623852792 -0.7710231937472641 0  -0.6212523202121544 -0.7836105886414596 0  -0.6054488332605283 -0.795884231721841 0  -0.5894029291282762 -0.8078392087135956 0  -0.5731210324752977 -0.8194707329334274 0  -0.5566096624511304 -0.8307741472061095 0  -0.5398754300847344 -0.8417449257291802 0  -0.5229250356374798 -0.8523786758850437 0  -0.5057652659204195 -0.8626711399997379 0  -0.4884029915768943 -0.872618197047678 0  -0.4708451643315825 -0.8822158643016828 0  -0.4530988142070805 -0.8914602989276289 0  -0.4351710467091333 -0.900347799523094 0  -0.4170690399816467 -0.9088748075993677 0  -0.3988000419326073 -0.9170379090062475 0  -0.3803713673320777 -0.9248338352990366 0  -0.3617903948834162 -0.9322594650472055 0  -0.3430645642688988 -0.9393118250841893 0  -0.3242013731709283 -0.9459880916978207 0  -0.3052083742700169 -0.9522855917609241 0  -0.2860931722207477 -0.9582018038016155 0  -0.2668634206069305 -0.963734359012881 0  -0.2475268188771631 -0.968881042201029 0  -0.2280911092620301 -0.9736397926726376 0  -0.2085640736741706 -0.9780087050596407 0  -0.1889535305924619 -0.9819860300822225 0  -0.1692673319315544 -0.9855701752492173 0  -0.1495133598980269 -0.9887597054957302 0  -0.1296995238344092 -0.9915533437577262 0  -0.1098337570523396 -0.9939499714833577 0  -0.08992401365612945 -0.9959486290808237 0  -0.06997826535799691 -0.9975485163025836 0  -0.05000449828625168 -0.9987489925657699 0  -0.030010709787
[...]
<PointData  Scalars="Displacement"> 
<DataArray  type="Float64"  Name="Displacement"  format="ascii">0.0000000000000000e+00  0.0000000000000000e+00  0.0000000000000000e+00  0.0000000000000000e+00  0.0000000000000000e+00  0.0000000000000000e+00  0.0000000000000000e+00  0.0000000000000000e+00  0.0000000000000000e+00  0.0000000000000000e+00  0.0000000000000000e+00  0.0000000000000000e+00  0.0000000000000000e+00  0.0000000000000000e+00  0.0000000000000000e+00  0.0000000000000000e+00  0.0000000000000000e+00  0.0000000000000000e+00  0.0000000000000000e+00  0.0000000000000000e+00  0.0000000000000000e+00  0.0000000000000000e+00  0.0000000000000000e+00  0.0000000000000000e+00  0.0000000000000000e+00  0.0000000000000000e+00  0.0000000000000000e+00  0.0000000000000000e+00  0.0000000000000000e+00  0.0000000000000000e+00  0.0000000000000000e+00  0.0000000000000000e+00  0.0000000000000000e+00  0.0000000000000000e+00  0.0000000000000000e+00  0.0000000000000000e+00  0.0000000000000000e+00  0.0000000000000000e+00  0.0000000000000000e+00  0.0000000000000000e+00  0.0000000000000000e+00  0.0000000000000000e+00  0.0000000000000000e+00  0.0000000000000000e+00  0.0000000000000000e+00  0.0000000000000000e+00  0.0000000000000000e+00  0.0000000000000000e+00  0.0000000000000000e+00  0.0000000000000000e+00  0.0000000000000000e+00  0.0000000000000000e+00  0.0000000000000000e+00  0.0000000000000000e+00  0.0000000000000000e+00  0.0000000000000000e+00  0.0000000000000000e+00  0.0000000000000000e+00  0.0000000000000000e+00  0.0000000000000000e+00  0.0000000000000000e+00  0.0000000000000000e+00  0.0000000000000000e+00  0.0000000000000000e+00  0.0000000000000000e+00  0.0000000000000000e+00  0.0000000000000000e+00  0.0000000000000000e+00  0.0000000000000000e+00  0.0000000000000000e+00  0.0000000000000000e+00  0.0000000000000000e+00  0.0000000000000000e+00  0.0000000000000000e+00  0.0000000000000000e+00  0.0000000000000000e+00  0.0000000000000000e+00  0.0000000000000000e+00  0.0000000000000000e+00  0.0000000000000000e+00  0.0000000000000000e+00  0.0000000000000000e+00  0.0000000000000000e+00  0.0000000000000000e+00  0.0000000000000000e+00  0.0000000000000000e+00  0.0000000000000000e+00  0.0000000000000000e+00  0.0000000000000000e+00  0.0000000000000000e+00  0.0000000000000000e+00  0.0000000000000000e+00  0.0000000000000000e+00  0.0000000000000000e+00  0.0000000000000000e+00  0.0000000000000000e+00  0.0000000000000000e+00  0.0000000000000000e+00  0.0000000000000000e+00  0.0000000000000000e+00  0.0000000000000000e+00  0.0000000000000000e+00  0.0000000000000000e+00  0.0000000000000000e+00  0.0000000000000000e+00  0.0000000000000000e+00  0.0000000000000000e+00  0.0000000000000000e+00  0.0000000000000000e+00  0.0000000000000000e+00  0.0000000000000000e+00  0.0000000000000000e+00  0.0000000000000000e+00  0.0000000000000000e+00  0.0000000000000000e+00  0.0000000000000000e+00  0.0000000000000000e+00  0.0000000000000000e+00  0.0000000000000000e+00  0.0000000000000000e+00  0.0000000000000000e+00  0.0000000000000000e+00  0.0000000000000000e+00  0.0000000000000000e+00  0.0000000000000000e+00  0.0000000000000000e+00  0.0000000000000000e+00  0.0000000000000000e+00  0.0000000000000000e+00  0.0000000000000000e+00  0.0000000000000000e+00  0.0000000000000000e+00  0.0000000000000000e+00  0.0000000000000000e+00  0.0000000000000000e+00  0.0000000000000000e+00  0.0000000000000000e+00  0.0000000000000000e+00  0.0000000000000000e+00  0.0000000000000000e+00  0.0000000000000000e+00  0.0000000000000000e+00  0.0000000000000000e+00  0.0000000000000000e+00  0.0000000000000000e+00  0.0000000000000000e+00  0.0000000000000000e+00  0.0000000000000000e+00  0.0000000000000000e+00  0.0000000000000000e+00  0.0000000000000000e+00  0.0000000000000000e+00  0.0000000000000000e+00  0.0000000000000000e+00  0.0000000000000000e+00  0.0000000000000000e+00  0.0000000000000000e+00  0.0000000000000000e+00  0.0000000000000000e+00  0.0000000000000000e+00  0.0000000000000000e+00  0.0000000000000000e+00  0.0000000000000000e+00  0.0000000000000000e+00  0.0000000000000000e+00  0.0000000000000000e+00  0.0000000000000000e+00  0.0000000000000000e+00  0.0000000000000000e+00  0.0000000000000000e+00  0.0000000000000000e+00  0.0000000000000000e+00  0.0000000000000000e+00  0.0000000000000000e+00  0.0000000000000000e+00  0.0000000000000000e+00  0.0000000000000000e+00  0.0000000000000000e+00  0.0000000000000000e+00  0.0000000000000000e+00  0.0000000000000000e+00  0.0000000000000000e+00  0.0000000000000000e+00  0.0000000000000000e+00  0.0000000000000000e+00  0.0000000000000000e+00  0.0000000000000000e+00  0.0000000000000000e+00  0.0000000000000000e+00  0.0000000000000000e+00  0.0000000000000000e+00  0.0000000000000000e+00  0.0000000000000000e+00  0.0000000000000000e+00  0.0000000000000000e+00  0.0000000000000000e+00  0.0000000000000000e+00  0.0000000000000000e+00  0.0000000000000000e+00  0.0000000000000000e+00  0.0000000000000000e+00  0.0000000000000000e+00  0.0000000000000000e+00  0.0000000000000000e+00  0.0000000000000000e+00  0.0000000000000000e+00  0.0000000000000000e+00  0.0000000000000000e+00  0.0000000000000000e+00  0.0000000000000000e+00  0.0000000000000000e+00  0.0000000000000000e+00  0.0000000000000000e+00  0.0000000000000000e+00  0.0000000000000000e+00  0.0000000000000000e+00  0.0000000000000000e+00  0.0000000000000000e+00  0.0000000000000000e+00  0.0000000000000000e+00  0.0000000000000000e+00  0.0000000000000000e+00  0.0000000000000000e+00  0.0000000000000000e+00  0.0000000000000000e+00  0.0000000000000000e+00  0.0000000000000000e+00  0.0000000000000000e+00  0.0000000000000000e+00  0.0000000000000000e+00  0.0000000000000000e+00  0.0000000000000000e+00  0.0000000000000000e+00  0.0000000000000000e+00  0.0000000000000000e+00  0.0000000000000000e+00  0.0000000000000000e+00  0.0000000000000000e+00  0.0000000000000000e+00  0.0000000000000000e+00  0.0000000000000000e+00  0.0000000000000000e+00  0.0000000000000000e+00  0.0000000000000000e+00  0.0000000000000000e+00  0.0000000000000000e+00  0.0000000000000000e+00  0.0000000000000000e+00  0.0000000000000000e+00  0.0000000000000000e+00  0.0000000000000000e+00  0.0000000000000000e+00  0.0000000000000000e+00  0.0000000000000000e+00  0.0000000000000000e+00  0.0000000000000000e+00  0.0000000000000000e+00  0.0000000000000000e+00  0.0000000000000000e+00  0.0000000000000000e+00  0.0000000000000000e+00  0.0000000000000000e+00  0.0000000000000000e+00  0.0000000000000000e+00  0.0000000000000000e+00  0.0000000000000000e+00  0.0000000000000000e+00  0.0000000000000000e+00  0.0000000000000000e+00  0.0000000000000000e+00  0.0000000000000000e+00  0.0000000000000000e+00  0.0000000000000000e+00  0.0000000000000000e+00  0.0000000000000000e+00  0.0000000000000000e+00  0.0000000000000000e+00  0.0000000000000000e+00  0.0000000000000000e+00  0.0000000000000000e+00  0.0000000000000000e+00  0.0000000000000000e+00  0.0000000000000000e+00  0.0000000000000000e+00  0.0000000000000000e+00  0.0000000000000000e+00  0.0000000000000000e+00  0.0000000000000000e+00  0.0000000000000000e+00  0.0000000000000000e+00  0.0000000000000000e+00  0.0000000000000000e+00  0.0000000000000000e+00  0.0000000000000000e+00  0.0000000000000000e+00  0.0000000000000000e+00  0.0000000000000000e+00  0.0000000000000000e+00  0.0000000000000000e+00  0.0000000000000000e+00  0.0000000000000000e+00  0.0000000000000000e+00  0.0000000000000000e+00  0.0000000000000000e+00  0.0000000000000000e+00  0.0000000000000000e+00  0.0000000000000000e+00  0.0000000000000000e+00  0.0000000000000000e+00  0.0000000000000000e+00  0.0000000000000000e+00  0.0000000000000000e+00  0.0000000000000000e+00  0.0000000000000000e+00  1.0774527289905856e+25  1.7485301598049761e+19  -4.0292269674911406e+20  3.3612547366057129e+20  -5.2136954493183584e+20  -3.7362531757756858e+19  1.6955110608785030e+17  9.6977429940509450e+14  -4.8361650330392575e+14  7.2547944429219984e+13  -2.8654401282424144e+14  -1.6126833587510677e+24  6.8053294091544102e+13  -5.4527742755937900e+12  1.9192589028247936e+26  -3.1892101908277357e+26  4.3951987104164923e+11  2.0092313186447122e+11  1.1245460847632195e+12  6.2458054234426712e+10  1.5475620999968964e+11  1.2265182418439536e+12  8.1640886430546692e+10  1.0417753002107087e+23  -2.5100545927581385e+22  -3.3518323277916358e+25  1.8936865606293411e+12  5.6114829451383286e+09  1.5887274898007280e+10  -9.7864363533384496e+20  7.2386737164803905e+09  4.4989469929530999e+26  -8.2408962620292508e+26  -2.2341505678877360e+20  9.7841755553994923e+09  5.0144229959538734e+08  8.9573717160397303e+08  -1.4371594897302589e+08  -6.1816194512838542e+08  -5.3962727674233722e+17  2.8633031501973207e+18  4.2142756973049139e+17  2.8950953291572314e+17  -4.6492195741898302e+26  5.8668068347675216e+08  2.1830253262814570e+07  1.4148341256267107e+08  1.9956984008376697e+08  -2.0743230065090992e+17  1.0258541601953630e+17  4.0456783799544344e+13  -5.2205694278857820e+18  -4.8434111481468371e+17  3.5652590896262775e+19  -4.2006701355931553e+05  -2.0343726355874532e+25  7.4024657672183529e+07  -1.9404900108209684e+07  -6.7749010451135338e+23  7.7873380124127254e+07  1.2026850985035442e+07  5.7509877612182375e+14  6.0239176512768820e+07  9.1807250330731660e+07  2.9736805124843358e+25  -3.1931441219003320e+26  1.7005662671079454e+24  -1.2185240144354361e+21  -5.7179836058673040e+22  -5.5134790384518584e+25  1.8920878412309641e+24  -4.0235434047066120e+16  4.5643311920942000e+15  1.1095087183676586e+16  8.4125142500903920e+15  -9.7061000714643946e+23  -2.1662342292770252e+07  1.0731994429887949e+22  -2.6990602854557849e+24  2.9090821144455275e+14  -7.5101651569414400e+06  3.8795828611139028e+22  8.1421605905659217e+05  1.5533525183616634e+06  -7.1233612202869374e+06  -2.8831541908451303e+27  1.0184397721651188e+06  -1.2294155664021468e+05  3.3396381276915944e+06  -1.0824844451197516e+24  -2.6867060933937535e+13  2.2761680464336512e+05  -1.7374355169020588e+15  -2.9909635022788970e+06  -3.9934815756443750e+12  -4.9615578060210600e+26  1.5802090893412746e+07  -6.2891064129738156e+06  -5.3152096008148688e+13  -4.1547844577519427e+11  -1.0775972726937171e+15  5.2365570019752125e+13  -5.3426118542940617e+06  4.1671330549435322e+20  -1.0930105386078161e+19  2.7322278649259305e+18  -8.5103392858103074e+20  2.3970797435075770e+13  9.8749383357379512e+12  5.6691709517185704e+05  -5.1309970357085327e+20  -7.3836882704162109e+05  1.4605497266013264e+06  -5.2376503388392976e+16  6.6062955832500940e+15  -2.5231743041704917e+12  3.3164290160966382e+04  -2.3428823751426363e+05  -1.1953243415704232e+06  -9.0384809075465786e+26  3.7726050976910190e+21  2.2135300348537991e+10  7.2765394164829295e+25  1.2002841863255752e+07  2.2222453331191025e+12  7.8239573733426748e+12  1.6203849773719502e+05  -3.0009651019202000e+04  1.5954788183667044e+11  -3.4953381241694116e+11  1.1459872122960680e+15  -6.4735836744845325e+11  -4.1123970977433616e+16  1.2703109911267511e+21  2.9869485817383187e+17  -4.8145631863459170e+12  6.1072564961108495e+05  1.2489240955987805e+27  -8.4133929555897205e+23  5.8031803642671545e+25  7.0745755479238414e+25  -9.0035275854862614e+26  9.7299304225788727e+09  9.3326983209641595e+21  -7.5148443599260304e+16  2.0520169079661411e+10  1.7914141839491409e+10  5.8655026295461254e+25  -5.9305301505250692e+27  1.2926967228309522e+14  -6.3715503363602438e+04  2.9675250101236186e+17  -3.2526347235734264e+23  1.0451619254080186e+11  -3.8970239963732196e+11  -1.2583451148091801e+08  -8.3450213485081294e+03  -2.6741421901834650e+09  -1.4532682080448387e+04  2.1560152608956258e+04  3.0464975355604180e+04  1.0318786922685865e+09  3.2477709470196262e+14  -5.0891959559999127e+05  2.4324729033351955e+08  2.6296884061542334e+19  -2.2034633832957565e+11  -1.1683449450202221e+05  -4.8222430389776709e+03  2.4572872480735508e+10  -2.2699663248657587e+17  6.1470559900699874e+25  -5.3967949360443325e+09  5.3150542607074183e+22  2.1354027721709987e+04  -1.6777477829210037e+21  3.2686994653862366e+04  -1.5329094376529097e+10  7.7643305908756811e+03  5.4824608145023789e+20  -1.3301256860102482e+10  -7.8038673424486646e+19  -1.3363226202646532e+16  -4.6712120298618593e+27  -1.6251033298696039e+05  1.2759792419583076e+18  1.2651750290343680e+15  -5.8420099047825873e+20  2.5149519825536411e+05  -5.8077898645554912e+08  -1.6025460270504616e+05  8.2344725738549546e+26  -1.4763061835156237e+04  9.0122622998315826e+04  -6.4597184326057349e+18  -1.2491558393135547e+23  2.8670881648045648e+11  -1.1241017977989084e+10  -4.2870926430012244e+19  8.8593691214602402e+12  -9.3506180144817200e+15  -1.8552526602983437e+17  -5.2944059045147345e+19  1.3215158166248228e+14  -3.5745059416709516e+16  -3.7758990779368353e+09  1.6425219737790676e+10  -1.0601242442291584e+26  4.6818505249699084e+06  1.4411834851517006e+10  1.1140670961620881e+12  3.0069520187153810e+26  8.2665655766733532e+25  5.5752200901737833e+03  4.5301126293814137e+04  7.4583643113203917e+09  -2.3746773259962611e+21  3.4925297921201488e+05  -2.0849127976373070e+15  1.6020715257033259e+14  -1.4482064918516142e+07  -2.8655882770304645e+13  -3.5980302330390769e+22  -1.2117325643852612e+15  -4.2060885435315953e+13  -9.6370020779937084e+04  -7.4534521265522539e+12  -1.3911397887628178e+04  -5.1743396816539988e+14  1.3428532647458307e+05  -4.8998894035640731e+05  1.2603856969458074e+05  1.4110990228505872e+04  5.5666663507045411e+07  -9.1463863780455195e+03  -1.1862623644478266e+20  -7.1793681120443320e+16  -1.2162764993057010e+09  -6.7744822581490248e+07  -2.8667810931895195e+26  1.1299469945337937e+25  1.7938921355733915e+15  8.6678848858292700e+15  1.3657108604454325e+05  -3.6900179926938534e+19  -5.2149138155239445e+04  3.1750763189029312e+03  3.8115347788804269e+04  -3.2476495122004598e+22  -1.7463805526658777e+20  2.8256941299618256e+17  1.2868070656919486e+17  3.7428339960541546e+26  -2.7132728480276195e+26  5.0920140730784351e+08  -4.4314572216018984e+22  -7.1433810285557246e+08  3.6665294544837642e+18  8.8482221122997478e+04  6.4804429267680076e+04  -1.3685432134141782e+05  -7.1828373336818301e+12  -1.7307994013512874e+08  8.6915393478453712e+16  -2.3245516102431955e+20  -2.9971446578582645e+22  3.1812175752116036e+08  -1.5085659301336138e+06  9.3176083011271650e+04  2.4331466742287472e+17  5.6571479526061203e+03  1.4350072312943971e+23  -2.2429265956452298e+21  -1.7435394682555463e+11  -6.2946914099991548e+08  -5.0853706071422041e+12  -1.9566063543559131e+24  1.1456741522354761e+24  6.2471982582883364e+22  -1.5721433972180401e+23  -4.3109830288418388e+24  3.7657784888949180e+25  -2.8195745319123401e+27  6.2044859217160188e+14  -7.3413620303487783e+12  -4.7085510082182991e+10  -1.9611581208218409e+26  1.1727138445886791e+04  -3.3843981086365259e+08  1.9326686910426156e+22  -6.6880894628736207e+26  9.6409810209550251e+20  2.8613917064609965e+15  -2.5016996798219478e+17  1.5764791323856808e+26  -8.3792824721486079e+02  4.6364972689972695e+18  -6.2157238943255121e+04  -6.4154653468441484e+03  -8.6403988168120821e+04  1.7634392913713671e+25  -3.5085194070803306e+25  -1.5210647670920109e+25  9.9487403421296588e+25  3.9095343383536602e+13  9.9633266973245760e+15  -4.8569888321461780e+11  1.2696045167135148e+16  8.9359567432997650e+14  3.4441971516052981e+14  -2.2681229128180593e+19  2.5683824499635515e+15  -3.9124607606804900e+23  5.6425125286730339e+10  -1.0546376005049738e+26  -2.0489409418986870e+25  -1.8255376941000506e+17  -4.9285053853604187e+11  2.3397806440225727e+13  -5.8748630576231972e+03  1.3472563804307383e+10  -6.5914572084142227e+09  -2.9108750378348290e+04  1.3184554273281848e+24  -4.3488905386138350e+02  -2.5185419425515600e+04  -1.2360366090661158e+08  -2.2501693226177415e+22  -2.3336031584689550e+23  -1.3306916036348750e+26  1.1012793667971770e+04  -1.8008217604400959e+12  -6.3079026391886812e+13  2.2971304044871818e+20  -1.9898958514356182e+23  4.1482523620312000e+11  5.2268533315289719e+19  4.0543372160848788e+24  -1.3714581918780951e+27  -3.8399050362171875e+12  4.2402842476315564e+08  2.2874646358841039e+20  2.8464093917693723e+07  2.7640503495272540e+07  -1.8066803885275906e+13  1.4867512326804501e+04  3.1891705087957597e+09  2.0441519485018620e+10  -1.5346806529536645e+04  4.0152682866832336e+13  2.1800590365933388e+14  3.9595796188538909e+04  9.6400418266087007e+06  -4.6220644253210248e+03  3.0156499590272105e+08  1.8350012321020174e+08  4.5910140146554477e+17  -3.1832515190736059e+26  -1.6462417096171090e+08  -6.0855355848921729e+25  -1.9961933331021716e+25  2.4413029125769165e+11  -9.7419460645453728e+03  7.1674747190441616e+16  9.7666058731489360e+07  -1.4797873965342627e+25  -1.2189344397970106e+07  5.6179691138501279e+12  6.9178573922928674e+25  6.3450191342129983e+07  4.1383530445906501e+02  -4.9144951661387162e+05  1.6899711171223733e+09  -6.2833233226586291e+23  1.8404127225936525e+22  1.0846695774742196e+12  -8.7115779760244477e+03  8.9968351992887874e+25  5.1182607604607888e+14  2.0866952039180986e+04  1.9906407403942810e+19  -9.7323404538954728e+03  1.1671407815609604e+08  8.9758273806513537e+19  1.1529301784904087e+05  -1.1028213106286680e+27  2.8961476577782537e+02  7.5309322545661192e+09  7.8184084351546289e+03  2.3402974999689837e+22  -9.1767121000024736e+16  -9.4315118918828812e+13  1.2373075561734606e+17  -1.4096409639486728e+03  6.8030829375921464e+08  -1.0599754786793044e+21  -1.5827412867517100e+05  -4.5953520647159690e+15  1.1498474727987500e+11  -8.0727342800257333e+01  -3.5418419701730481e+03  1.5540134025043041e+18  8.6305104083509389e+06  -1.9420955707639611e+20  2.2707055051055753e+11  -5.7571202897211443e+18  1.2174047355874613e+13  4.9900810827533172e+02  3.8835355182942636e+07  -1.4599502936795149e+09  1.2484114330806343e+07  -5.9717038937298767e+05  -1.6529923436295559e+22  4.5842955993252756e+23  -1.0545543254053880e+27  -3.9854848317500361e+21  -2.9498194636488290e+09  -2.9517745458885808e+25  1.2365129500959501e+21  2.0701333517335686e+08  -2.1289268790394058e+03  2.5803898470047736e+05  -1.0797609031963366e+16  -2.9114051344417362e+14  1.1266945612148785e+11  -3.1702534014584809e+23  -1.9329226636015835e+12  -4.5553145951637151e+02  -1.7900826970616881e+03  -1.8361321488342815e+04  2.6495239786532038e+14  -4.0244598210197054e+06  -1.5716406104608960e+11  2.2456105491630498e+07  -4.9464733244261824e+07  -2.8039677119623926e+07  -2.4944911167077825e+15  1.4190143213985297e+08  -2.4762982270450745e+20  -9.3207739579525800e+15  -1.5798080168207199e+18  -6.1394140996935890e+15  6.9453946296190781e+18  3.4955402768401597e+22  -5.9079377664960856e+06  -2.5905318501151655e+21  3.3302465898931705e+10  1.9490031344674744e+27  9.4817887026784875e+14  -1.7946908583706945e+20  6.4090263945188598e+18  2.0686539695671419e+23  5.9806157842487525e+06  -1.0998406460082019e+03  -5.9207687761192101e+03  -1.6385750734498057e+26  -5.2004651031371812e+13  2.3150925689547965e+18  6.6152958160402465e+19  5.5627214063564687e+04  3.7470959535668176e+16  3.5088862177665487e+03  2.4923102272584416e+26  2.1355386304699822e+25  -4.6114830973879792e+20  -8.0262249966982971e+10  7.1696517426210225e+07  -3.0651015930872019e+07  1.1333647644264016e+12  -3.7661923574427383e+12  1.4474164199939536e+16  -2.7412954138762215e+06  -4.4605563258656719e+20  -7.8434285481776302e+18  7.9271199006445427e+09  3.7851577051873881e+26  2.9255345540172998e+11  -1.0665864106759346e+19  2.5736968409394508e+13  6.7154998799454700e+15  2.5351895417483039e+13  -4.0398625274034073e+10  -1.3774450241941211e+03  1.1898064752915131e+07  2.7061467738779425e+03  5.2914498602065565e+06  7.6475644619013154e+04  -1.6004767491034822e+24  -3.2641230309440069e+09  1.8973402203858730e+17  2.1166744758154522e+10  -9.4769007368671624e+21  1.0234660175404719e+18  -1.8450754374435116e+24  5.2235509546170259e+04  -3.3290874804380458e+21  3.7058244435950459e+04  5.4742550231105929e+02  2.5644806243476432e+03  6.1493504754710815e+18  -2.4517109556481071e+04  2.9704471059541988e+03  4.0365299647905956e+18  2.1160435891182701e+17  -1.5908750253718140e+15 