<?xml version="1.0"?>
<VTKFile type="UnstructuredGrid"  version="0.1"  >
<UnstructuredGrid>
<Piece  NumberOfPoints="20054" NumberOfCells="39478">
<Points>
<DataArray  type="Float64"  NumberOfComponents="3"  format="ascii">1 0 0  0.9997998037428526 0.02000880895389431 0  0.9991992951284931 0.04000960653046352 0  0.9981987145960756 0.05999438456007805 0  0.9967984627705549 0.07995514128721501 0  0.9949991003022806 0.09988388457430118 0  0.9928013476425149 0.1197726351017051 0  0.9902060847549715 0.139613429562597 0  0.987214350763483 0.1593983238513969 0  0.9838273435359444 0.1791193962445356 0  0.9800464192046954 0.198768750572253 0  0.9758730916235354 0.2183385193801655 0  0.9713090317615876 0.237820867079336 0  0.9663560670342555 0.2572079930835849 0  0.9610161805715396 0.2764921349327862 0  0.9552915104240066 0.2956655714008991 0  0.9491843487067304 0.3147206255874884 0  0.9426971406815462 0.3336496679914983 0  0.9358324837779861 0.3524451195660473 0  0.9285931265532873 0.3710994547530225 0  0.9209819675918909 0.3896052044962556 0  0.9130020543448703 0.4079549592320781 0  0.9046565819097542 0.4261413718560547 0  0.8959488917512338 0.4441571606647087 0  0.8868824703632656 0.4619951122710622 0  0.8774609478731046 0.4796480844928215 0  0.8676880965878291 0.4971090092120542 0  0.8575678294839372 0.5143708952052096 0  0.8471041986406199 0.5314268309423539 0  0.8363013936173391 0.5482699873544935 0  0.8251637397763597 0.5648936205678837 0  0.8136956965509062 0.5812910746042258 0  0.8019018556596399 0.5974557840456699 0  0.7897869392681683 0.6133812766635599 0  0.777355798098326 0.6290611760098652 0  0.7646134094859813 0.6444892039702628 0  0.7515648753881492 0.6596591832778468 0  0.7382154203402046 0.6745650399864606 0  0.7245703893640189 0.6892008059026586 0  0.7106352458278521 0.7035606209753273 0  0.6964155692588616 0.7176387356420051 0  0.6819170531091018 0.7314295131309636 0  0.6671455024759069 0.7449274317181303 0  0.6521068317775753 0.7581270869379442 0  0.6368070623852795 0.7710231937472638 0  0.6212523202121545 0.7836105886414595 0  0.6054488332605282 0.795884231721841 0  0.5894029291282759 0.8078392087135958 0  0.5731210324752972 0.8194707329334278 0  0.5566096624511305 0.8307741472061095 0  0.5398754300847343 0.8417449257291802 0  0.5229250356374803 0.8523786758850435 0  0.5057652659204196 0.8626711399997378 0  0.4884029915768944 0.8726181970476778 0  0.4708451643315825 0.8822158643016828 0  0.45309881420708 0.8914602989276292 0  0.4351710467091336 0.9003477995230937 0  0.4170690399816468 0.9088748075993677 0  0.398800041932607 0.9170379090062476 0  0.3803713673320772 0.9248338352990368 0  0.3617903948834157 0.9322594650472057 0  0.3430645642688987 0.9393118250841893 0  0.3242013731709288 0.9459880916978206 0  0.3052083742700172 0.952285591760924 0  0.2860931722207478 0.9582018038016155 0  0.2668634206069304 0.963734359012881 0  0.2475268188771628 0.9688810422010291 0  0.2280911092620296 0.9736397926726377 0  0.2085640736741707 0.9780087050596407 0  0.1889535305924618 0.9819860300822225 0  0.1692673319315541 0.9855701752492174 0  0.1495133598980264 0.9887597054957302 0  0.1296995238344084 0.9915533437577263 0  0.1098337570523395 0.9939499714833577 0  0.08992401365612977 0.9959486290808237 0  0.06997826535799723 0.9975485163025836 0  0.05000449828625179 0.9987489925657699 0  0.03001070978771124 0.9995495772086734 0  0.01000490522562346 0.9999499496831961 0  -0.01000490522562333 0.9999499496831961 0  -0.03001070978771133 0.9995495772086734 0  -0.05000449828625144 0.9987489925657699 0  -0.06997826535799688 0.9975485163025836 0  -0.08992401365612987 0.9959486290808237 0  -0.1098337570523394 0.9939499714833577 0  -0.1296995238344082 0.9915533437577263 0  -0.1495133598980262 0.9887597054957303 0  -0.1692673319315537 0.9855701752492174 0  -0.1889535305924614 0.9819860300822226 0  -0.2085640736741705 0.9780087050596407 0  -0.2280911092620295 0.9736397926726377 0  -0.2475268188771627 0.9688810422010291 0  -0.2668634206069302 0.9637343590128811 0  -0.2860931722207475 0.9582018038016156 0  -0.3052083742700173 0.9522855917609239 0  -0.3242013731709289 0.9459880916978205 0  -0.3430645642688986 0.9393118250841894 0  -0.3617903948834154 0.9322594650472058 0  -0.380371367332077 0.924833835299037 0  -0.3988000419326071 0.9170379090062476 0  -0.4170690399816465 0.9088748075993678 0  -0.4351710467091335 0.9003477995230939 0  -0.4530988142070799 0.8914602989276292 0  -0.4708451643315824 0.8822158643016829 0  -0.4884029915768945 0.8726181970476778 0  -0.5057652659204197 0.8626711399997378 0  -0.5229250356374801 0.8523786758850437 0  -0.5398754300847342 0.8417449257291804 0  -0.5566096624511303 0.8307741472061098 0  -0.5731210324752971 0.8194707329334279 0  -0.589402929128276 0.8078392087135957 0  -0.6054488332605281 0.7958842317218411 0  -0.6212523202121542 0.7836105886414597 0  -0.6368070623852793 0.7710231937472639 0  -0.652106831777575 0.7581270869379444 0  -0.6671455024759069 0.7449274317181304 0  -0.6819170531091018 0.7314295131309636 0  -0.6964155692588616 0.7176387356420052 0  -0.7106352458278521 0.7035606209753273 0  -0.7245703893640187 0.6892008059026588 0  -0.7382154203402043 0.6745650399864608 0  -0.751564875388149 0.6596591832778469 0  -0.7646134094859813 0.6444892039702628 0  -0.7773557980983258 0.6290611760098654 0  -0.7897869392681683 0.6133812766635599 0  -0.8019018556596398 0.59745578404567 0  -0.8136956965509062 0.5812910746042258 0  -0.8251637397763595 0.5648936205678839 0  -0.836301393617339 0.5482699873544935 0  -0.8471041986406197 0.5314268309423542 0  -0.8575678294839372 0.5143708952052097 0  -0.8676880965878292 0.497109009212054 0  -0.8774609478731045 0.4796480844928216 0  -0.8868824703632656 0.4619951122710621 0  -0.8959488917512338 0.4441571606647088 0  -0.904656581909754 0.426141371856055 0  -0.9130020543448703 0.4079549592320783 0  -0.920981967591891 0.3896052044962555 0  -0.9285931265532872 0.3710994547530226 0  -0.9358324837779861 0.3524451195660473 0  -0.9426971406815462 0.3336496679914984 0  -0.9491843487067303 0.3147206255874888 0  -0.9552915104240065 0.2956655714008993 0  -0.9610161805715396 0.2764921349327862 0  -0.9663560670342555 0.2572079930835851 0  -0.9713090317615876 0.2378208670793361 0  -0.9758730916235353 0.2183385193801658 0  -0.9800464192046954 0.198768750572253 0  -0.9838273435359444 0.1791193962445354 0  -0.987214350763483 0.159398323851397 0  -0.9902060847549714 0.1396134295625972 0  -0.9928013476425149 0.1197726351017052 0  -0.9949991003022804 0.09988388457430147 0  -0.9967984627705549 0.07995514128721509 0  -0.9981987145960756 0.05999438456007793 0  -0.9991992951284931 0.04000960653046362 0  -0.9997998037428526 0.02000880895389464 0  -1 1.224646799147353e-16 0  -0.9997998037428526 -0.0200088089538944 0  -0.9991992951284931 -0.04000960653046338 0  -0.9981987145960756 -0.05999438456007812 0  -0.9967984627705549 -0.07995514128721484 0  -0.9949991003022806 -0.09988388457430078 0  -0.9928013476425149 -0.1197726351017049 0  -0.9902060847549715 -0.1396134295625965 0  -0.9872143507634831 -0.1593983238513963 0  -0.9838273435359444 -0.1791193962445356 0  -0.9800464192046953 -0.1987687505722532 0  -0.9758730916235354 -0.2183385193801655 0  -0.9713090317615876 -0.2378208670793363 0  -0.9663560670342556 -0.2572079930835848 0  -0.9610161805715396 -0.276492134932786 0  -0.9552915104240066 -0.2956655714008991 0  -0.9491843487067305 -0.3147206255874881 0  -0.9426971406815464 -0.3336496679914978 0  -0.9358324837779862 -0.3524451195660471 0  -0.9285931265532875 -0.371099454753022 0  -0.9209819675918909 -0.3896052044962557 0  -0.9130020543448704 -0.407954959232078 0  -0.9046565819097541 -0.4261413718560548 0  -0.8959488917512338 -0.4441571606647086 0  -0.8868824703632655 -0.4619951122710623 0  -0.8774609478731046 -0.4796480844928214 0  -0.8676880965878293 -0.4971090092120538 0  -0.8575678294839373 -0.5143708952052095 0  -0.84710419864062 -0.5314268309423537 0  -0.8363013936173395 -0.5482699873544929 0  -0.8251637397763596 -0.5648936205678838 0  -0.8136956965509061 -0.5812910746042259 0  -0.8019018556596399 -0.5974557840456699 0  -0.7897869392681682 -0.61338127666356 0  -0.777355798098326 -0.6290611760098652 0  -0.7646134094859816 -0.6444892039702625 0  -0.7515648753881492 -0.6596591832778468 0  -0.7382154203402048 -0.6745650399864603 0  -0.7245703893640192 -0.6892008059026583 0  -0.7106352458278522 -0.7035606209753272 0  -0.6964155692588621 -0.7176387356420046 0  -0.6819170531091017 -0.7314295131309637 0  -0.667145502475907 -0.7449274317181303 0  -0.6521068317775756 -0.758127086937944 0  -0.6368070623852792 -0.7710231937472641 0  -0.6212523202121544 -0.7836105886414596 0  -0.6054488332605283 -0.795884231721841 0  -0.5894029291282762 -0.8078392087135956 0  -0.5731210324752977 -0.8194707329334274 0  -0.5566096624511304 -0.8307741472061095 0  -0.5398754300847344 -0.8417449257291802 0  -0.5229250356374798 -0.8523786758850437 0  -0.5057652659204195 -0.8626711399997379 0  -0.4884029915768943 -0.872618197047678 0  -0.4708451643315825 -0.8822158643016828 0  -0.4530988142070805 -0.8914602989276289 0  -0.4351710467091333 -0.900347799523094 0  -0.4170690399816467 -0.9088748075993677 0  -0.3988000419326073 -0.9170379090062475 0  -0.3803713673320777 -0.9248338352990366 0  -0.3617903948834162 -0.9322594650472055 0  -0.3430645642688988 -0.9393118250841893 0  -0.3242013731709283 -0.9459880916978207 0  -0.3052083742700169 -0.9522855917609241 0  -0.2860931722207477 -0.9582018038016155 0  -0.2668634206069305 -0.963734359012881 0  -0.2475268188771631 -0.968881042201029 0  -0.2280911092620301 -0.9736397926726376 0  -0.2085640736741706 -0.9780087050596407 0  -0.1889535305924619 -0.9819860300822225 0  -0.1692673319315544 -0.9855701752492173 0  -0.1495133598980269 -0.9887597054957302 0  -0.1296995238344092 -0.9915533437577262 0  -0.1098337570523396 -0.9939499714833577 0  -0.08992401365612945 -0.9959486290808237 0  -0.06997826535799691 -0.9975485163025836 0  -0.05000449828625168 -0.9987489925657699 0  -0.030010709787
[...]
<PointData  Scalars="Displacement"> 
<DataArray  type="Float64"  Name="Displacement"  format="ascii">0.0000000000000000e+00  0.0000000000000000e+00  0.0000000000000000e+00  0.0000000000000000e+00  0.0000000000000000e+00  0.0000000000000000e+00  0.0000000000000000e+00  0.0000000000000000e+00  0.0000000000000000e+00  0.0000000000000000e+00  0.0000000000000000e+00  0.0000000000000000e+00  0.0000000000000000e+00  0.0000000000000000e+00  0.0000000000000000e+00  0.0000000000000000e+00  0.0000000000000000e+00  0.0000000000000000e+00  0.0000000000000000e+00  0.0000000000000000e+00  0.0000000000000000e+00  0.0000000000000000e+00  0.0000000000000000e+00  0.0000000000000000e+00  0.0000000000000000e+00  0.0000000000000000e+00  0.0000000000000000e+00  0.0000000000000000e+00  0.0000000000000000e+00  0.0000000000000000e+00  0.0000000000000000e+00  0.0000000000000000e+00  0.0000000000000000e+00  0.0000000000000000e+00  0.0000000000000000e+00  0.0000000000000000e+00  0.0000000000000000e+00  0.0000000000000000e+00  0.0000000000000000e+00  0.0000000000000000e+00  0.0000000000000000e+00  0.0000000000000000e+00  0.0000000000000000e+00  0.0000000000000000e+00  0.0000000000000000e+00  0.0000000000000000e+00  0.0000000000000000e+00  0.0000000000000000e+00  0.0000000000000000e+00  0.0000000000000000e+00  0.0000000000000000e+00  0.0000000000000000e+00  0.0000000000000000e+00  0.0000000000000000e+00  0.0000000000000000e+00  0.0000000000000000e+00  0.0000000000000000e+00  0.0000000000000000e+00  0.0000000000000000e+00  0.0000000000000000e+00  0.0000000000000000e+00  0.0000000000000000e+00  0.0000000000000000e+00  0.0000000000000000e+00  0.0000000000000000e+00  0.0000000000000000e+00  0.0000000000000000e+00  0.0000000000000000e+00  0.0000000000000000e+00  0.0000000000000000e+00  0.0000000000000000e+00  0.0000000000000000e+00  0.0000000000000000e+00  0.0000000000000000e+00  0.0000000000000000e+00  0.0000000000000000e+00  0.0000000000000000e+00  0.0000000000000000e+00  0.0000000000000000e+00  0.0000000000000000e+00  0.0000000000000000e+00  0.0000000000000000e+00  0.0000000000000000e+00  0.0000000000000000e+00  0.0000000000000000e+00  0.0000000000000000e+00  0.0000000000000000e+00  0.0000000000000000e+00  0.0000000000000000e+00  0.0000000000000000e+00  0.0000000000000000e+00  0.0000000000000000e+00  0.0000000000000000e+00  0.0000000000000000e+00  0.0000000000000000e+00  0.0000000000000000e+00  0.0000000000000000e+00  0.0000000000000000e+00  0.0000000000000000e+00  0.0000000000000000e+00  0.0000000000000000e+00  0.0000000000000000e+00  0.0000000000000000e+00  0.0000000000000000e+00  0.0000000000000000e+00  0.0000000000000000e+00  0.0000000000000000e+00  0.0000000000000000e+00  0.0000000000000000e+00  0.0000000000000000e+00  0.0000000000000000e+00  0.0000000000000000e+00  0.0000000000000000e+00  0.0000000000000000e+00  0.0000000000000000e+00  0.0000000000000000e+00  0.0000000000000000e+00  0.0000000000000000e+00  0.0000000000000000e+00  0.0000000000000000e+00  0.0000000000000000e+00  0.0000000000000000e+00  0.0000000000000000e+00  0.0000000000000000e+00  0.0000000000000000e+00  0.0000000000000000e+00  0.0000000000000000e+00  0.0000000000000000e+00  0.0000000000000000e+00  0.0000000000000000e+00  0.0000000000000000e+00  0.0000000000000000e+00  0.0000000000000000e+00  0.0000000000000000e+00  0.0000000000000000e+00  0.0000000000000000e+00  0.0000000000000000e+00  0.0000000000000000e+00  0.0000000000000000e+00  0.0000000000000000e+00  0.0000000000000000e+00  0.0000000000000000e+00  0.0000000000000000e+00  0.0000000000000000e+00  0.0000000000000000e+00  0.0000000000000000e+00  0.0000000000000000e+00  0.0000000000000000e+00  0.0000000000000000e+00  0.0000000000000000e+00  0.0000000000000000e+00  0.0000000000000000e+00  0.0000000000000000e+00  0.0000000000000000e+00  0.0000000000000000e+00  0.0000000000000000e+00  0.0000000000000000e+00  0.0000000000000000e+00  0.0000000000000000e+00  0.0000000000000000e+00  0.0000000000000000e+00  0.0000000000000000e+00  0.0000000000000000e+00  0.0000000000000000e+00  0.0000000000000000e+00  0.0000000000000000e+00  0.0000000000000000e+00  0.0000000000000000e+00  0.0000000000000000e+00  0.0000000000000000e+00  0.0000000000000000e+00  0.0000000000000000e+00  0.0000000000000000e+00  0.0000000000000000e+00  0.0000000000000000e+00  0.0000000000000000e+00  0.0000000000000000e+00  0.0000000000000000e+00  0.0000000000000000e+00  0.0000000000000000e+00  0.0000000000000000e+00  0.0000000000000000e+00  0.0000000000000000e+00  0.0000000000000000e+00  0.0000000000000000e+00  0.0000000000000000e+00  0.0000000000000000e+00  0.0000000000000000e+00  0.0000000000000000e+00  0.0000000000000000e+00  0.0000000000000000e+00  0.0000000000000000e+00  0.0000000000000000e+00  0.0000000000000000e+00  0.0000000000000000e+00  0.0000000000000000e+00  0.0000000000000000e+00  0.0000000000000000e+00  0.0000000000000000e+00  0.0000000000000000e+00  0.0000000000000000e+00  0.0000000000000000e+00  0.0000000000000000e+00  0.0000000000000000e+00  0.0000000000000000e+00  0.0000000000000000e+00  0.0000000000000000e+00  0.0000000000000000e+00  0.0000000000000000e+00  0.0000000000000000e+00  0.0000000000000000e+00  0.0000000000000000e+00  0.0000000000000000e+00  0.0000000000000000e+00  0.0000000000000000e+00  0.0000000000000000e+00  0.0000000000000000e+00  0.0000000000000000e+00  0.0000000000000000e+00  0.0000000000000000e+00  0.0000000000000000e+00  0.0000000000000000e+00  0.0000000000000000e+00  0.0000000000000000e+00  0.0000000000000000e+00  0.0000000000000000e+00  0.0000000000000000e+00  0.0000000000000000e+00  0.0000000000000000e+00  0.0000000000000000e+00  0.0000000000000000e+00  0.0000000000000000e+00  0.0000000000000000e+00  0.0000000000000000e+00  0.0000000000000000e+00  0.0000000000000000e+00  0.0000000000000000e+00  0.0000000000000000e+00  0.0000000000000000e+00  0.0000000000000000e+00  0.0000000000000000e+00  0.0000000000000000e+00  0.0000000000000000e+00  0.0000000000000000e+00  0.0000000000000000e+00  0.0000000000000000e+00  0.0000000000000000e+00  0.0000000000000000e+00  0.0000000000000000e+00  0.0000000000000000e+00  0.0000000000000000e+00  0.0000000000000000e+00  0.0000000000000000e+00  0.0000000000000000e+00  0.0000000000000000e+00  0.0000000000000000e+00  0.0000000000000000e+00  0.0000000000000000e+00  0.0000000000000000e+00  0.0000000000000000e+00  0.0000000000000000e+00  0.0000000000000000e+00  0.0000000000000000e+00  0.0000000000000000e+00  0.0000000000000000e+00  0.0000000000000000e+00  0.0000000000000000e+00  0.0000000000000000e+00  0.0000000000000000e+00  0.0000000000000000e+00  0.0000000000000000e+00  0.0000000000000000e+00  0.0000000000000000e+00  0.0000000000000000e+00  0.0000000000000000e+00  0.0000000000000000e+00  0.0000000000000000e+00  0.0000000000000000e+00  0.0000000000000000e+00  0.0000000000000000e+00  0.0000000000000000e+00  0.0000000000000000e+00  0.0000000000000000e+00  0.0000000000000000e+00  0.0000000000000000e+00  0.0000000000000000e+00  0.0000000000000000e+00  0.0000000000000000e+00  0.0000000000000000e+00  0.0000000000000000e+00  0.0000000000000000e+00  0.0000000000000000e+00  0.0000000000000000e+00  0.0000000000000000e+00  0.0000000000000000e+00  0.0000000000000000e+00  0.0000000000000000e+00  0.0000000000000000e+00  0.0000000000000000e+00  0.0000000000000000e+00  0.0000000000000000e+00  0.0000000000000000e+00  0.0000000000000000e+00  0.0000000000000000e+00  0.0000000000000000e+00  0.0000000000000000e+00  0.0000000000000000e+00  0.0000000000000000e+00  0.0000000000000000e+00  0.0000000000000000e+00  0.0000000000000000e+00  0.0000000000000000e+00  0.0000000000000000e+00  0.0000000000000000e+00  -3.2550295208432778e+18  -1.4974458817644929e+12  -7.7170963303046391e+13  5.2138993863992344e+13  -9.2447618919453234e+13  5.9153489060744604e+11  8.8636535220630615e+10  -3.4594536074709719e+08  -1.3237147320962819e+08  1.5849775164978425e+06  -3.2910497212999307e+07  -1.2685699713194050e+17  8.1636039365111208e+06  -9.1593531071388768e+05  3.8841999013338587e+19  -5.7025485238396510e+19  -1.4494056499780880e+04  3.7462232472894584e+03  1.0332543776861402e+05  7.9884994329780466e+03  -3.4356312914554883e+03  6.5322194706384202e+04  -1.0515987949997287e+04  1.8903076168401176e+16  -6.0665917550838080e+15  -3.0680794346760259e+18  1.8113537284295863e+05  9.4754174284098985e+02  9.1015980843321511e+00  -2.5276101760722628e+14  1.4705696246870311e+03  8.4177899652649058e+19  -1.5258830824551390e+20  -4.2160803190090562e+13  7.1568885069756959e+01  -8.2847834676053793e+00  7.1925573589985859e+01  -2.0240333838729299e+01  -5.8794301748132085e+01  6.6015089159357414e+10  3.3574267164936761e+11  6.5501456835198536e+09  4.0997866037500029e+09  -7.6441911118974599e+19  6.0204151348918408e+01  2.3401855240283602e+00  6.7519659163679639e+00  4.1057477104287301e+00  -9.6594039150938511e+09  -3.3368156428817525e+09  4.3004124954100996e+06  -9.8462295534333142e+11  -9.1144905936544785e+10  8.1131269156631006e+12  -4.5903279789358698e-03  4.9834685597579325e+18  -4.1504611206639481e+00  -6.1105587188712363e-01  -1.0084950010653506e+17  -7.6332335823664987e-01  -2.4788787626759773e-01  7.0843807443302020e+07  4.2702799379946841e+00  1.6298265302657338e+00  6.0072457639214121e+18  -4.9662626365272064e+19  3.1675189416503725e+17  -2.3202649478909844e+14  -1.4181823077461014e+16  -7.2792048617257134e+18  2.7616814243873037e+17  -9.6534985052126427e+09  4.1381347900999469e+08  1.8316724042685778e+09  9.4206162268115366e+08  -1.8972582731956490e+17  2.0604176168559982e-01  1.0076649355795820e+15  -5.3195172166846618e+17  3.4372319380054429e+07  -2.0691618836551595e-01  7.9231483806932430e+15  -6.0553146816655905e-02  6.0921085753777117e-02  -3.6753940548231911e-01  -5.4157101404077484e+20  2.1132903798176852e-02  1.4126072120642055e-01  1.1281217201085354e-01  -2.0887942197277670e+17  -2.2570445956152151e+06  -2.6009551687946795e-03  -1.8635009275018256e+07  -3.7477406614608473e-02  -1.8802838396077442e+06  -7.9561468261614043e+19  5.6043684824757334e-01  -1.3690758637699621e-01  -2.1252347490013679e+06  -1.0388658085352348e+06  -1.1517735368744944e+08  1.0728830793446708e+07  -2.9778929519950686e-02  -4.6237131707708414e+13  -1.4468932080630288e+12  3.5075880553097130e+10  -1.9921211463041350e+14  4.3883556335374503e+05  1.9386638033968473e+06  3.9860754645293095e-02  -9.7025389892004516e+13  -4.9627608153224159e-02  5.1362115841990200e-02  -1.9796596381478928e+10  1.1002546776279461e+09  -1.2530000305049953e+06  7.5765879299655572e-02  4.4717135719106280e-02  -1.0969892169958294e-01  -1.5750667698795630e+20  5.0615870300452244e+14  -2.8200377328113586e+03  1.2864496088034144e+19  -6.5096854150803474e-01  2.2272354803745064e+05  1.8253461574642569e+07  1.1996776854392923e-03  7.3522686896123956e-05  2.6040489702884766e+04  4.0346122356170108e+03  1.5845404275627631e+08  6.3195779327641372e+04  -7.1601957230664463e+09  2.1470836098388881e+14  4.5152978024880081e+10  -7.3449230944834431e+04  -3.3557685521223943e-02  2.3166018336446038e+20  -1.6253998917459184e+17  1.0103668943531219e+19  -1.0371146677227808e+18  -1.7080109309762437e+20  9.8914350943127829e+02  2.5634057228338550e+15  -9.7421748321676121e+09  3.2648669379536823e+03  1.8346503039279621e+03  1.0414576936851677e+19  -1.1153200427723386e+21  1.0859863896613552e+08  6.8529954956372593e-03  4.8596641423664589e+10  -4.6827257461693936e+16  4.4356653589122106e+03  -3.3383526578900062e+04  -1.0790496157143448e+01  2.8850247068263270e-03  -1.1096599342884463e+03  3.2463802876334874e-03  4.6470452258183385e-04  5.4044458406063154e-03  -2.8701028430844656e+02  1.6187856859191507e+07  1.0326826724470065e-02  2.7041082054419974e+02  1.7852455364642275e+12  -1.9392203069389463e+04  -1.8159574027404254e-02  -2.4692759832108647e-03  1.8893554339400740e+02  -3.3289625227940044e+10  1.1822616253086976e+19  -6.0630731573805178e+02  7.0581538393417010e+15  -2.2910484804660003e-03  -3.5694764676110100e+14  -5.8836636687958324e-04  1.9991968688980018e+04  -4.0805116123895040e-04  9.8772579856427047e+13  -1.7526035819284450e+03  -1.3805778843576986e+13  7.6647942933279109e+08  -8.7913252412115544e+20  2.6913561017198155e-03  3.1578948768777600e+11  1.8874068059172127e+08  -1.1619734901997247e+14  7.3171724873600207e-03  -1.3671218959693229e+01  2.8227217850176146e-04  1.4271524998394136e+20  1.8154707435482224e-04  4.0961402705081508e-04  -9.3858487040374915e+11  4.2897242354348224e+16  4.4048750125905462e+04  -1.9866022492015919e+01  -7.4103589412548018e+12  -6.8858004704401467e+05  -3.2141315566761022e+09  -3.1861572149900536e+10  -2.1195434500753734e+13  4.2593028441944152e+07  -5.6480667027332029e+09  -4.4769037111669189e+02  8.3314759435851158e+02  -1.9137641899801117e+19  1.9823643252202944e-01  -3.3376749626166401e+02  1.1524330832061336e+05  4.8844751584382452e+19  1.3790086015599232e+18  3.5571376342983000e-04  1.8923881760795861e-03  8.5016775097875166e+02  -3.8075930718400012e+14  -2.5306152218123800e-03  -1.6528709142205340e+08  5.0911049267625690e+07  -1.6073493636725944e-01  -5.3869781493935343e+06  -7.2205500925544890e+15  6.3778760804529740e+06  1.3317414790571703e+07  -5.3950905244963163e-04  -1.1888241790121747e+06  -1.7324505165785459e-05  -9.5365139391282797e+07  2.9889768204359355e-05  3.1686926366604218e-04  3.7716802460527723e-03  1.1423374199880192e-03  1.1999904522701934e+01  -1.8938190099495529e-04  2.1091237283019526e+12  -1.0464301851195227e+10  3.4742035049693243e+01  2.5141560773024224e+01  -3.3923427533388657e+19  2.8817980228677519e+18  3.4534121907264000e+08  7.0221525684998810e+08  1.0101757279751246e-02  -6.3214640610347344e+12  7.2387837432577137e-05  -1.2894498986036054e-04  2.1062603976224441e-03  -7.5897853961438460e+15  -4.6692289827589391e+13  2.1511059380080383e+11  -6.1273945138412346e+10  7.9254204248299094e+19  -5.3452314654815879e+19  -1.3503462868845903e+01  -8.9672059706744870e+15  1.4190799564656270e+03  2.6514187607100494e+11  -8.7390069060613179e-04  3.1614192265740893e-03  -1.2052771225191385e-02  1.8568298944112074e+05  -6.2309293998363898e+01  -7.9978968633432841e+08  -5.9225286267822438e+13  -6.8479120172856990e+15  9.8475224914605395e+00  -1.0900229984795869e-01  -3.5754634429443276e-03  5.0810166559644096e+10  1.4109170191275116e-04  1.8563665525769064e+16  -4.1296662870713131e+14  9.4954333569313621e+03  -2.6446953024288558e+02  1.3419184757434019e+04  -4.4120979524485229e+17  4.2247504348171622e+17  1.2874644551865384e+16  -2.6439690621670885e+15  -1.2240019961614584e+18  -6.8987801057910323e+18  -5.0655066564984681e+20  3.5315798589122482e+07  -8.5281284042846921e+04  6.4841330197495354e+03  -3.7437032242591293e+19  8.3427171267211512e-05  -3.1181354274326779e+01  2.3170128466286305e+15  -5.0832071748581614e+19  1.6255861978007584e+14  2.6560779271809325e+08  -1.9262975800778317e+11  7.8273597955297034e+19  -7.1595056780777394e-05  8.0676077073249353e+11  1.6813109926416146e-03  -1.7179681851286073e-04  -5.9792727355300463e-04  -3.9474595849868410e+17  5.0742865994863114e+18  -2.5220248637528115e+18  9.1569809852176251e+18  6.4808767820978845e+06  1.3341253920346982e+09  -8.0926472566748416e+04  -1.1630297901734378e+09  1.4024812797503254e+08  5.0406119524322003e+07  -3.9497380906634800e+12  4.3710335310728401e+08  6.5235692187643392e+17  4.9555925939438430e+03  9.0939475838263992e+18  -1.6463819789039357e+18  -2.8195243645388542e+10  -2.3748386536676455e+04  1.3363945520323578e+06  -3.5751045905056480e-05  1.7567156734282750e+02  -6.2363858591672388e+03  -2.4682946276000990e-04  2.0574382287716973e+17  -2.1645411654892093e-05  -4.7843440083079555e-04  2.3020733689527497e+00  -4.4049970238871225e+15  -4.5339945552100648e+16  -2.4486529191702249e+19  -5.3799477824431857e-04  -1.5270895696292230e+05  3.9211682267990768e+07  4.5666261795117172e+13  -5.9540621897822368e+16  3.0225006650214509e+04  7.7495460633620576e+12  8.1612668913703219e+17  -2.6214470683185552e+20  2.8046565925029718e+05  3.4634651816702814e+01  3.6177833663090250e+13  -2.8485028287048082e+00  6.2760773216394572e-01  -6.0621090598439076e+05  2.7039047950816908e-04  5.1538648055196141e+01  2.6434862050317001e+03  -1.9393605827432246e-04  5.4675350715465914e+05  2.0273714918580640e+07  1.6771707122077600e-04  3.8420721905953437e-01  1.4576082606138932e-05  4.1593344964423729e+00  3.9058727315697959e+00  1.7880713925475124e+10  -6.2061094456866456e+19  -2.2222589958861176e+00  -8.8880481178739159e+18  -1.5286104948611549e+19  2.4391141012643293e+04  6.2743443461906200e-05  1.0856892246513758e+10  1.3599482765381696e+00  -2.8596463828769188e+18  6.4256589007987919e-01  5.1413149755334802e+05  -7.0336704060672543e+18  -1.7230956148135593e+02  8.9999263011201526e-05  6.0762353539955483e-03  3.7065838325812713e+01  -1.3190689715111835e+17  3.5566191987990000e+15  2.2451040995152976e+05  5.8566885929186110e-04  -1.7446160807302605e+19  -2.2208822194200368e+09  3.1692936515643192e-04  3.3517695676730088e+12  3.3329846024739682e-06  3.2203711921725335e+00  1.9860421234676121e+13  1.5275890666095464e-03  -1.9244979982380968e+20  -1.9309179815665390e-05  5.9179641150764962e+02  1.1009644447034885e-05  4.1013438286790580e+15  -2.3517324464931648e+10  -1.5131177245127773e+07  2.2694786882963589e+10  -1.5862859338236382e-04  1.0348967600660014e+01  -4.1346930273256169e+14  1.3785345907659304e-03  -1.4266074090112922e+09  1.5892570210132239e+04  1.0210892354441942e-05  2.0056650228406711e-05  1.6361965412674484e+11  1.5109328355586568e-01  7.5096779699153721e+12  8.0936862336528875e+03  -4.5492954229844104e+11  -8.9949662350653801e+09  1.8178492424807484e-05  5.1039322643694041e+00  -2.4062215553631034e+02  5.6805036195023841e-02  -8.7602648671258554e-01  -2.9613474413406115e+15  1.0291264226915366e+17  -2.0276620302873949e+20  1.3482958470841426e+16  -4.5477891603266755e+01  -7.2628941167768914e+18  2.1784484939704688e+14  5.9459347352220062e+00  7.5550508699258153e-05  6.3827186357601866e-03  -1.7576633972057190e+09  -2.8318378205746207e+07  -2.4131309694338743e+03  -5.8779872986195656e+16  6.7447862886285147e+04  1.1216638190818978e-04  -5.3110584242157127e-05  7.6583944479613236e-04  3.7028489913471319e+07  -3.1870752048383975e+00  -2.3820483435215716e+04  7.9072485656880931e-01  1.6864953587599043e+01  8.4944296580188527e-01  -5.7435125285772407e+08  1.7428155274684801e+01  -4.7177845179339234e+13  -2.8752174457269096e+09  -2.6398708608196518e+11  7.6909208288538492e+08  8.2305938302542944e+11  6.8202078983612410e+15  -2.0850949818732784e-01  -5.1817977918028300e+14  -8.3439816316265649e+02  3.7890446887092735e+20  9.8871736818544745e+07  -3.3020711851318473e+13  1.3480921985097891e+12  3.3361398867261268e+16  -4.6693472931726952e-02  -2.4369159272445577e-05  7.0497096105414330e-05  -3.0562918796036989e+19  -5.8806885980343120e+06  6.8122513546242615e+11  1.4727312718729572e+13  -1.2145499195078763e-02  1.0226854412217758e+10  1.2755537128307764e-04  1.0181721582937958e+20  3.9863888895462943e+18  -8.9431630526807359e+13  -1.9866865844381784e+04  -3.6984081821890777e+00  -2.1320585519889632e-01  1.3099034072497432e+05  -4.6544926587452537e+04  -1.9664476382444859e+09  -2.7271752366310248e-01  -9.8863908861269812e+13  -1.5148986140760989e+12  2.1494964180824603e+01  7.3620504750824694e+19  -1.3252999673450776e+05  2.0211033994633953e+12  1.3526054442020722e+06  1.0520895556478097e+09  -1.9080580039108571e+07  -1.7132079412464522e+04  6.5220493635109869e-05  -1.6808277704606289e+00  1.4771176039866116e-04  4.2301774732963660e-01  7.6234545643793202e-03  -3.7081897224485376e+17  -1.0657966978466618e+02  4.1169452014243462e+10  -3.5617995394035916e+02  -1.4786366203680278e+15  1.1328001423058359e+11  -4.0323516176677792e+17  -1.4816883357341994e-03  -5.4888969289536106e+14  -1.0192219799886049e-03  -2.1040622220052985e-06  -4.8848027692729360e-05  9.4290943787261133e+11  -7.0387454846005545e-02  1.1229541102020371e-04  7.7236405778983691e+11  3.0423547449728935e+10  -2.8335566094379765e+08  -7