<?xml version="1.0"?>
<VTKFile type="UnstructuredGrid"  version="0.1"  >
<UnstructuredGrid>
<Piece  NumberOfPoints="20054" NumberOfCells="39478">
<Points>
<DataArray  type="Float64"  NumberOfComponents="3"  format="ascii">1 0 0  0.9997998037428526 0.02000880895389431 0  0.9991992951284931 0.04000960653046352 0  0.9981987145960756 0.05999438456007805 0  0.9967984627705549 0.07995514128721501 0  0.9949991003022806 0.09988388457430118 0  0.9928013476425149 0.1197726351017051 0  0.9902060847549715 0.139613429562597 0  0.987214350763483 0.1593983238513969 0  0.9838273435359444 0.1791193962445356 0  0.9800464192046954 0.198768750572253 0  0.9758730916235354 0.2183385193801655 0  0.9713090317615876 0.237820867079336 0  0.9663560670342555 0.2572079930835849 0  0.9610161805715396 0.2764921349327862 0  0.9552915104240066 0.2956655714008991 0  0.9491843487067304 0.3147206255874884 0  0.9426971406815462 0.3336496679914983 0  0.9358324837779861 0.3524451195660473 0  0.9285931265532873 0.3710994547530225 0  0.9209819675918909 0.3896052044962556 0  0.9130020543448703 0.4079549592320781 0  0.9046565819097542 0.4261413718560547 0  0.8959488917512338 0.4441571606647087 0  0.8868824703632656 0.4619951122710622 0  0.8774609478731046 0.4796480844928215 0  0.8676880965878291 0.4971090092120542 0  0.8575678294839372 0.5143708952052096 0  0.8471041986406199 0.5314268309423539 0  0.8363013936173391 0.5482699873544935 0  0.8251637397763597 0.5648936205678837 0  0.8136956965509062 0.5812910746042258 0  0.8019018556596399 0.5974557840456699 0  0.7897869392681683 0.6133812766635599 0  0.777355798098326 0.6290611760098652 0  0.7646134094859813 0.6444892039702628 0  0.7515648753881492 0.6596591832778468 0  0.7382154203402046 0.6745650399864606 0  0.7245703893640189 0.6892008059026586 0  0.7106352458278521 0.7035606209753273 0  0.6964155692588616 0.7176387356420051 0  0.6819170531091018 0.7314295131309636 0  0.6671455024759069 0.7449274317181303 0  0.6521068317775753 0.7581270869379442 0  0.6368070623852795 0.7710231937472638 0  0.6212523202121545 0.7836105886414595 0  0.6054488332605282 0.795884231721841 0  0.5894029291282759 0.8078392087135958 0  0.5731210324752972 0.8194707329334278 0  0.5566096624511305 0.8307741472061095 0  0.5398754300847343 0.8417449257291802 0  0.5229250356374803 0.8523786758850435 0  0.5057652659204196 0.8626711399997378 0  0.4884029915768944 0.8726181970476778 0  0.4708451643315825 0.8822158643016828 0  0.45309881420708 0.8914602989276292 0  0.4351710467091336 0.9003477995230937 0  0.4170690399816468 0.9088748075993677 0  0.398800041932607 0.9170379090062476 0  0.3803713673320772 0.9248338352990368 0  0.3617903948834157 0.9322594650472057 0  0.3430645642688987 0.9393118250841893 0  0.3242013731709288 0.9459880916978206 0  0.3052083742700172 0.952285591760924 0  0.2860931722207478 0.9582018038016155 0  0.2668634206069304 0.963734359012881 0  0.2475268188771628 0.9688810422010291 0  0.2280911092620296 0.9736397926726377 0  0.2085640736741707 0.9780087050596407 0  0.1889535305924618 0.9819860300822225 0  0.1692673319315541 0.9855701752492174 0  0.1495133598980264 0.9887597054957302 0  0.1296995238344084 0.9915533437577263 0  0.1098337570523395 0.9939499714833577 0  0.08992401365612977 0.9959486290808237 0  0.06997826535799723 0.9975485163025836 0  0.05000449828625179 0.9987489925657699 0  0.03001070978771124 0.9995495772086734 0  0.01000490522562346 0.9999499496831961 0  -0.01000490522562333 0.9999499496831961 0  -0.03001070978771133 0.9995495772086734 0  -0.05000449828625144 0.9987489925657699 0  -0.06997826535799688 0.9975485163025836 0  -0.08992401365612987 0.9959486290808237 0  -0.1098337570523394 0.9939499714833577 0  -0.1296995238344082 0.9915533437577263 0  -0.1495133598980262 0.9887597054957303 0  -0.1692673319315537 0.9855701752492174 0  -0.1889535305924614 0.9819860300822226 0  -0.2085640736741705 0.9780087050596407 0  -0.2280911092620295 0.9736397926726377 0  -0.2475268188771627 0.9688810422010291 0  -0.2668634206069302 0.9637343590128811 0  -0.2860931722207475 0.9582018038016156 0  -0.3052083742700173 0.9522855917609239 0  -0.3242013731709289 0.9459880916978205 0  -0.3430645642688986 0.9393118250841894 0  -0.3617903948834154 0.9322594650472058 0  -0.380371367332077 0.924833835299037 0  -0.3988000419326071 0.9170379090062476 0  -0.4170690399816465 0.9088748075993678 0  -0.4351710467091335 0.9003477995230939 0  -0.4530988142070799 0.8914602989276292 0  -0.4708451643315824 0.8822158643016829 0  -0.4884029915768945 0.8726181970476778 0  -0.5057652659204197 0.8626711399997378 0  -0.5229250356374801 0.8523786758850437 0  -0.5398754300847342 0.8417449257291804 0  -0.5566096624511303 0.8307741472061098 0  -0.5731210324752971 0.8194707329334279 0  -0.589402929128276 0.8078392087135957 0  -0.6054488332605281 0.7958842317218411 0  -0.6212523202121542 0.7836105886414597 0  -0.6368070623852793 0.7710231937472639 0  -0.652106831777575 0.7581270869379444 0  -0.6671455024759069 0.7449274317181304 0  -0.6819170531091018 0.7314295131309636 0  -0.6964155692588616 0.7176387356420052 0  -0.7106352458278521 0.7035606209753273 0  -0.7245703893640187 0.6892008059026588 0  -0.7382154203402043 0.6745650399864608 0  -0.751564875388149 0.6596591832778469 0  -0.7646134094859813 0.6444892039702628 0  -0.7773557980983258 0.6290611760098654 0  -0.7897869392681683 0.6133812766635599 0  -0.8019018556596398 0.59745578404567 0  -0.8136956965509062 0.5812910746042258 0  -0.8251637397763595 0.5648936205678839 0  -0.836301393617339 0.5482699873544935 0  -0.8471041986406197 0.5314268309423542 0  -0.8575678294839372 0.5143708952052097 0  -0.8676880965878292 0.497109009212054 0  -0.8774609478731045 0.4796480844928216 0  -0.8868824703632656 0.4619951122710621 0  -0.8959488917512338 0.4441571606647088 0  -0.904656581909754 0.426141371856055 0  -0.9130020543448703 0.4079549592320783 0  -0.920981967591891 0.3896052044962555 0  -0.9285931265532872 0.3710994547530226 0  -0.9358324837779861 0.3524451195660473 0  -0.9426971406815462 0.3336496679914984 0  -0.9491843487067303 0.3147206255874888 0  -0.9552915104240065 0.2956655714008993 0  -0.9610161805715396 0.2764921349327862 0  -0.9663560670342555 0.2572079930835851 0  -0.9713090317615876 0.2378208670793361 0  -0.9758730916235353 0.2183385193801658 0  -0.9800464192046954 0.198768750572253 0  -0.9838273435359444 0.1791193962445354 0  -0.987214350763483 0.159398323851397 0  -0.9902060847549714 0.1396134295625972 0  -0.9928013476425149 0.1197726351017052 0  -0.9949991003022804 0.09988388457430147 0  -0.9967984627705549 0.07995514128721509 0  -0.9981987145960756 0.05999438456007793 0  -0.9991992951284931 0.04000960653046362 0  -0.9997998037428526 0.02000880895389464 0  -1 1.224646799147353e-16 0  -0.9997998037428526 -0.0200088089538944 0  -0.9991992951284931 -0.04000960653046338 0  -0.9981987145960756 -0.05999438456007812 0  -0.9967984627705549 -0.07995514128721484 0  -0.9949991003022806 -0.09988388457430078 0  -0.9928013476425149 -0.1197726351017049 0  -0.9902060847549715 -0.1396134295625965 0  -0.9872143507634831 -0.1593983238513963 0  -0.9838273435359444 -0.1791193962445356 0  -0.9800464192046953 -0.1987687505722532 0  -0.9758730916235354 -0.2183385193801655 0  -0.9713090317615876 -0.2378208670793363 0  -0.9663560670342556 -0.2572079930835848 0  -0.9610161805715396 -0.276492134932786 0  -0.9552915104240066 -0.2956655714008991 0  -0.9491843487067305 -0.3147206255874881 0  -0.9426971406815464 -0.3336496679914978 0  -0.9358324837779862 -0.3524451195660471 0  -0.9285931265532875 -0.371099454753022 0  -0.9209819675918909 -0.3896052044962557 0  -0.9130020543448704 -0.407954959232078 0  -0.9046565819097541 -0.4261413718560548 0  -0.8959488917512338 -0.4441571606647086 0  -0.8868824703632655 -0.4619951122710623 0  -0.8774609478731046 -0.4796480844928214 0  -0.8676880965878293 -0.4971090092120538 0  -0.8575678294839373 -0.5143708952052095 0  -0.84710419864062 -0.5314268309423537 0  -0.8363013936173395 -0.5482699873544929 0  -0.8251637397763596 -0.5648936205678838 0  -0.8136956965509061 -0.5812910746042259 0  -0.8019018556596399 -0.5974557840456699 0  -0.7897869392681682 -0.61338127666356 0  -0.777355798098326 -0.6290611760098652 0  -0.7646134094859816 -0.6444892039702625 0  -0.7515648753881492 -0.6596591832778468 0  -0.7382154203402048 -0.6745650399864603 0  -0.7245703893640192 -0.6892008059026583 0  -0.7106352458278522 -0.7035606209753272 0  -0.6964155692588621 -0.7176387356420046 0  -0.6819170531091017 -0.7314295131309637 0  -0.667145502475907 -0.7449274317181303 0  -0.6521068317775756 -0.758127086937944 0  -0.6368070623852792 -0.7710231937472641 0  -0.6212523202121544 -0.7836105886414596 0  -0.6054488332605283 -0.795884231721841 0  -0.5894029291282762 -0.8078392087135956 0  -0.5731210324752977 -0.8194707329334274 0  -0.5566096624511304 -0.8307741472061095 0  -0.5398754300847344 -0.8417449257291802 0  -0.5229250356374798 -0.8523786758850437 0  -0.5057652659204195 -0.8626711399997379 0  -0.4884029915768943 -0.872618197047678 0  -0.4708451643315825 -0.8822158643016828 0  -0.4530988142070805 -0.8914602989276289 0  -0.4351710467091333 -0.900347799523094 0  -0.4170690399816467 -0.9088748075993677 0  -0.3988000419326073 -0.9170379090062475 0  -0.3803713673320777 -0.9248338352990366 0  -0.3617903948834162 -0.9322594650472055 0  -0.3430645642688988 -0.9393118250841893 0  -0.3242013731709283 -0.9459880916978207 0  -0.3052083742700169 -0.9522855917609241 0  -0.2860931722207477 -0.9582018038016155 0  -0.2668634206069305 -0.963734359012881 0  -0.2475268188771631 -0.968881042201029 0  -0.2280911092620301 -0.9736397926726376 0  -0.2085640736741706 -0.9780087050596407 0  -0.1889535305924619 -0.9819860300822225 0  -0.1692673319315544 -0.9855701752492173 0  -0.1495133598980269 -0.9887597054957302 0  -0.1296995238344092 -0.9915533437577262 0  -0.1098337570523396 -0.9939499714833577 0  -0.08992401365612945 -0.9959486290808237 0  -0.06997826535799691 -0.9975485163025836 0  -0.05000449828625168 -0.9987489925657699 0  -0.030010709787
[...]
<PointData  Scalars="Displacement"> 
<DataArray  type="Float64"  Name="Displacement"  format="ascii">0.0000000000000000e+00  0.0000000000000000e+00  0.0000000000000000e+00  0.0000000000000000e+00  0.0000000000000000e+00  0.0000000000000000e+00  0.0000000000000000e+00  0.0000000000000000e+00  0.0000000000000000e+00  0.0000000000000000e+00  0.0000000000000000e+00  0.0000000000000000e+00  0.0000000000000000e+00  0.0000000000000000e+00  0.0000000000000000e+00  0.0000000000000000e+00  0.0000000000000000e+00  0.0000000000000000e+00  0.0000000000000000e+00  0.0000000000000000e+00  0.0000000000000000e+00  0.0000000000000000e+00  0.0000000000000000e+00  0.0000000000000000e+00  0.0000000000000000e+00  0.0000000000000000e+00  0.0000000000000000e+00  0.0000000000000000e+00  0.0000000000000000e+00  0.0000000000000000e+00  0.0000000000000000e+00  0.0000000000000000e+00  0.0000000000000000e+00  0.0000000000000000e+00  0.0000000000000000e+00  0.0000000000000000e+00  0.0000000000000000e+00  0.0000000000000000e+00  0.0000000000000000e+00  0.0000000000000000e+00  0.0000000000000000e+00  0.0000000000000000e+00  0.0000000000000000e+00  0.0000000000000000e+00  0.0000000000000000e+00  0.0000000000000000e+00  0.0000000000000000e+00  0.0000000000000000e+00  0.0000000000000000e+00  0.0000000000000000e+00  0.0000000000000000e+00  0.0000000000000000e+00  0.0000000000000000e+00  0.0000000000000000e+00  0.0000000000000000e+00  0.0000000000000000e+00  0.0000000000000000e+00  0.0000000000000000e+00  0.0000000000000000e+00  0.0000000000000000e+00  0.0000000000000000e+00  0.0000000000000000e+00  0.0000000000000000e+00  0.0000000000000000e+00  0.0000000000000000e+00  0.0000000000000000e+00  0.0000000000000000e+00  0.0000000000000000e+00  0.0000000000000000e+00  0.0000000000000000e+00  0.0000000000000000e+00  0.0000000000000000e+00  0.0000000000000000e+00  0.0000000000000000e+00  0.0000000000000000e+00  0.0000000000000000e+00  0.0000000000000000e+00  0.0000000000000000e+00  0.0000000000000000e+00  0.0000000000000000e+00  0.0000000000000000e+00  0.0000000000000000e+00  0.0000000000000000e+00  0.0000000000000000e+00  0.0000000000000000e+00  0.0000000000000000e+00  0.0000000000000000e+00  0.0000000000000000e+00  0.0000000000000000e+00  0.0000000000000000e+00  0.0000000000000000e+00  0.0000000000000000e+00  0.0000000000000000e+00  0.0000000000000000e+00  0.0000000000000000e+00  0.0000000000000000e+00  0.0000000000000000e+00  0.0000000000000000e+00  0.0000000000000000e+00  0.0000000000000000e+00  0.0000000000000000e+00  0.0000000000000000e+00  0.0000000000000000e+00  0.0000000000000000e+00  0.0000000000000000e+00  0.0000000000000000e+00  0.0000000000000000e+00  0.0000000000000000e+00  0.0000000000000000e+00  0.0000000000000000e+00  0.0000000000000000e+00  0.0000000000000000e+00  0.0000000000000000e+00  0.0000000000000000e+00  0.0000000000000000e+00  0.0000000000000000e+00  0.0000000000000000e+00  0.0000000000000000e+00  0.0000000000000000e+00  0.0000000000000000e+00  0.0000000000000000e+00  0.0000000000000000e+00  0.0000000000000000e+00  0.0000000000000000e+00  0.0000000000000000e+00  0.0000000000000000e+00  0.0000000000000000e+00  0.0000000000000000e+00  0.0000000000000000e+00  0.0000000000000000e+00  0.0000000000000000e+00  0.0000000000000000e+00  0.0000000000000000e+00  0.0000000000000000e+00  0.0000000000000000e+00  0.0000000000000000e+00  0.0000000000000000e+00  0.0000000000000000e+00  0.0000000000000000e+00  0.0000000000000000e+00  0.0000000000000000e+00  0.0000000000000000e+00  0.0000000000000000e+00  0.0000000000000000e+00  0.0000000000000000e+00  0.0000000000000000e+00  0.0000000000000000e+00  0.0000000000000000e+00  0.0000000000000000e+00  0.0000000000000000e+00  0.0000000000000000e+00  0.0000000000000000e+00  0.0000000000000000e+00  0.0000000000000000e+00  0.0000000000000000e+00  0.0000000000000000e+00  0.0000000000000000e+00  0.0000000000000000e+00  0.0000000000000000e+00  0.0000000000000000e+00  0.0000000000000000e+00  0.0000000000000000e+00  0.0000000000000000e+00  0.0000000000000000e+00  0.0000000000000000e+00  0.0000000000000000e+00  0.0000000000000000e+00  0.0000000000000000e+00  0.0000000000000000e+00  0.0000000000000000e+00  0.0000000000000000e+00  0.0000000000000000e+00  0.0000000000000000e+00  0.0000000000000000e+00  0.0000000000000000e+00  0.0000000000000000e+00  0.0000000000000000e+00  0.0000000000000000e+00  0.0000000000000000e+00  0.0000000000000000e+00  0.0000000000000000e+00  0.0000000000000000e+00  0.0000000000000000e+00  0.0000000000000000e+00  0.0000000000000000e+00  0.0000000000000000e+00  0.0000000000000000e+00  0.0000000000000000e+00  0.0000000000000000e+00  0.0000000000000000e+00  0.0000000000000000e+00  0.0000000000000000e+00  0.0000000000000000e+00  0.0000000000000000e+00  0.0000000000000000e+00  0.0000000000000000e+00  0.0000000000000000e+00  0.0000000000000000e+00  0.0000000000000000e+00  0.0000000000000000e+00  0.0000000000000000e+00  0.0000000000000000e+00  0.0000000000000000e+00  0.0000000000000000e+00  0.0000000000000000e+00  0.0000000000000000e+00  0.0000000000000000e+00  0.0000000000000000e+00  0.0000000000000000e+00  0.0000000000000000e+00  0.0000000000000000e+00  0.0000000000000000e+00  0.0000000000000000e+00  0.0000000000000000e+00  0.0000000000000000e+00  0.0000000000000000e+00  0.0000000000000000e+00  0.0000000000000000e+00  0.0000000000000000e+00  0.0000000000000000e+00  0.0000000000000000e+00  0.0000000000000000e+00  0.0000000000000000e+00  0.0000000000000000e+00  0.0000000000000000e+00  0.0000000000000000e+00  0.0000000000000000e+00  0.0000000000000000e+00  0.0000000000000000e+00  0.0000000000000000e+00  0.0000000000000000e+00  0.0000000000000000e+00  0.0000000000000000e+00  0.0000000000000000e+00  0.0000000000000000e+00  0.0000000000000000e+00  0.0000000000000000e+00  0.0000000000000000e+00  0.0000000000000000e+00  0.0000000000000000e+00  0.0000000000000000e+00  0.0000000000000000e+00  0.0000000000000000e+00  0.0000000000000000e+00  0.0000000000000000e+00  0.0000000000000000e+00  0.0000000000000000e+00  0.0000000000000000e+00  0.0000000000000000e+00  0.0000000000000000e+00  0.0000000000000000e+00  0.0000000000000000e+00  0.0000000000000000e+00  0.0000000000000000e+00  0.0000000000000000e+00  0.0000000000000000e+00  0.0000000000000000e+00  0.0000000000000000e+00  0.0000000000000000e+00  0.0000000000000000e+00  0.0000000000000000e+00  0.0000000000000000e+00  0.0000000000000000e+00  0.0000000000000000e+00  0.0000000000000000e+00  0.0000000000000000e+00  0.0000000000000000e+00  0.0000000000000000e+00  0.0000000000000000e+00  0.0000000000000000e+00  0.0000000000000000e+00  0.0000000000000000e+00  0.0000000000000000e+00  0.0000000000000000e+00  0.0000000000000000e+00  0.0000000000000000e+00  0.0000000000000000e+00  0.0000000000000000e+00  0.0000000000000000e+00  0.0000000000000000e+00  0.0000000000000000e+00  0.0000000000000000e+00  0.0000000000000000e+00  0.0000000000000000e+00  0.0000000000000000e+00  0.0000000000000000e+00  0.0000000000000000e+00  0.0000000000000000e+00  0.0000000000000000e+00  0.0000000000000000e+00  0.0000000000000000e+00  0.0000000000000000e+00  0.0000000000000000e+00  0.0000000000000000e+00  0.0000000000000000e+00  0.0000000000000000e+00  0.0000000000000000e+00  0.0000000000000000e+00  0.0000000000000000e+00  0.0000000000000000e+00  0.0000000000000000e+00  0.0000000000000000e+00  0.0000000000000000e+00  0.0000000000000000e+00  0.0000000000000000e+00  0.0000000000000000e+00  0.0000000000000000e+00  0.0000000000000000e+00  0.0000000000000000e+00  0.0000000000000000e+00  0.0000000000000000e+00  0.0000000000000000e+00  0.0000000000000000e+00  0.0000000000000000e+00  6.8969242246841736e-03  2.1054248142946274e-02  2.1059611948973236e-02  2.1062434093869452e-02  2.1053519094905156e-02  2.1056702019257231e-02  2.7502060881078136e-02  3.5038712493229429e-02  3.6523155264952104e-02  3.9273409380228441e-02  3.9269967044841828e-02  1.0522977080863003e-02  4.2594998187345426e-02  4.2596942164371890e-02  1.0164960456675084e-02  9.9069328105474801e-03  4.5006882589475307e-02  4.4827694036213388e-02  4.5101859158141702e-02  4.5178798094289062e-02  4.5512205405434138e-02  4.5529321593948395e-02  4.5443845637728283e-02  1.4426105154244145e-02  1.4426396007476397e-02  8.9985464216771876e-03  4.4519977988419994e-02  4.6000882408140646e-02  4.6013545380502154e-02  1.9212429331986348e-02  4.6023074297328916e-02  9.6119594960997999e-03  8.3320402213415429e-03  2.0278293694607531e-02  4.5847526960565231e-02  4.4991690253912670e-02  4.4769773405231326e-02  4.4637017439810897e-02  4.4603957009984915e-02  2.5762329473760025e-02  2.6434618163960318e-02  2.7218338095248287e-02  2.7524869314996956e-02  7.9712439857775354e-03  4.4138961336806837e-02  4.3815703660541050e-02  4.3424171882385725e-02  4.3415668277239708e-02  3.0125564278986047e-02  2.9389991810809906e-02  4.0707747080179747e-02  2.5544232916765806e-02  2.8202017212452871e-02  1.8571046744925029e-02  4.1707411284708708e-02  7.8273098563028699e-03  4.3660313836148872e-02  4.1748903427810610e-02  1.1293957043011995e-02  4.1284568697916524e-02  4.1512243955042424e-02  3.8861700591907619e-02  4.1064578859598348e-02  4.1875236188654817e-02  1.1296673241052338e-02  8.9420261189673798e-03  1.4007959453490485e-02  1.8586304598668658e-02  1.3790339511669095e-02  7.5741980835341187e-03  1.1236915629530849e-02  2.9823231449126741e-02  3.4355734091554062e-02  3.3076402626721277e-02  3.2997395722051938e-02  1.2420183469166365e-02  4.0733762108079219e-02  1.5457563394750594e-02  1.2334649458854428e-02  3.7982288849538748e-02  3.9607540070556876e-02  1.4688615516614257e-02  3.9057979342024290e-02  3.9342133827997075e-02  3.8471629085720382e-02  7.4669771325024965e-03  3.8891221041184323e-02  3.8063449611782173e-02  3.8069112813698937e-02  1.3656797663695866e-02  4.0378002131512970e-02  3.7458144974755837e-02  3.4108399795917614e-02  3.7233906782283589e-02  4.0309632442615415e-02  7.8918412536317182e-03  3.8945694248112901e-02  3.6749888021269377e-02  4.1151400764293140e-02  4.2883408141833348e-02  3.7209112659676975e-02  4.1148015158507981e-02  3.6702922640382732e-02  1.7577249631831483e-02  2.4577971847300643e-02  2.4577196226126707e-02  1.6608918649452770e-02  4.2871969072270553e-02  4.1793921807846884e-02  3.4591042072714052e-02  1.6126769596327147e-02  3.4398881391866323e-02  3.5327417939219001e-02  3.0565004391329371e-02  3.1657243236547519e-02  4.3258515724965245e-02  3.3693706908603696e-02  3.6202723611918418e-02  3.5789772012755031e-02  7.5695109438075241e-03  1.7248851552607195e-02  4.5909802761365033e-02  9.9975689817802232e-03  4.1500440626107596e-02  4.4548369553334889e-02  3.9386664835515874e-02  3.5648689334539019e-02  3.3001259021073398e-02  4.4940069081097191e-02  4.4795942117543716e-02  3.9087027451415103e-02  4.4422987084757497e-02  3.4384049230760792e-02  1.8790489604304295e-02  3.0053266565689053e-02  4.2841610526742423e-02  3.4858619859745747e-02  9.7393411950997266e-03  1.3514606396145400e-02  1.0948522526968891e-02  7.2217911864072915e-03  9.7208857389629449e-03  4.6013765507917977e-02  1.6094173877406075e-02  3.0708689525215240e-02  4.6023319584986101e-02  4.5990929430387503e-02  1.0361636369184829e-02  8.0006499387802483e-03  3.6127028753580266e-02  3.0605691051107907e-02  3.1163351162317374e-02  1.3658830009272854e-02  4.5815285343121730e-02  4.5814101334306565e-02  4.1878448678524471e-02  2.9601947592177096e-02  4.6008623962132962e-02  3.1159890529013329e-02  2.9833902313295500e-02  2.9949813045031290e-02  4.6028261386828390e-02  3.7939269306525934e-02  3.1314300080198386e-02  4.5345827677128289e-02  2.1957038446912970e-02  4.5776480631218495e-02  3.6287298451805693e-02  2.9460590912984794e-02  4.6020968896141316e-02  2.9205330134516923e-02  7.1707902786578744e-03  4.6013476121373277e-02  1.4106296140586519e-02  2.8683909994345017e-02  1.8211220340105878e-02  2.8278116965539106e-02  4.5385610731183024e-02  2.8738167062510443e-02  1.9916625220921705e-02  4.5937249984628822e-02  2.3590510038012245e-02  3.0033363442564871e-02  8.7901539768458492e-03  3.0782975771982118e-02  2.5479255769063291e-02  3.6451259074330583e-02  2.0138164530828274e-02  2.9069228386052207e-02  4.4342600747521894e-02  2.9546715180367902e-02  7.9852970471779219e-03  2.7657703994756980e-02  2.9015618272533426e-02  2.3743145397562653e-02  1.1681761386759490e-02  4.5649953826768078e-02  4.5813827807935130e-02  2.2091628510822147e-02  3.8033769101729696e-02  3.1468359145286257e-02  2.8894372801621968e-02  2.0747725429218045e-02  3.6941958661801284e-02  3.1541022560627914e-02  4.5811324468889740e-02  4.5743407349091166e-02  9.2367780470435420e-03  3.8975405720341076e-02  4.5731187558406820e-02  4.5159196528337865e-02  8.1372521242814300e-03  7.1401974051502051e-03  2.7651809099919468e-02  2.7290275106034996e-02  4.6025184702328664e-02  1.9408994615435469e-02  2.8631896682938016e-02  3.6237028650742520e-02  3.8842471105652317e-02  4.2367169255768763e-02  4.0809400093054803e-02  1.5497662455719992e-02  3.4884796022567326e-02  3.8626826800251507e-02  2.8791585459810618e-02  4.2887187067794416e-02  2.5864716853617336e-02  3.8762475066052751e-02  2.7038105966210223e-02  3.3242616037431658e-02  2.9060888932482782e-02  2.5839920213745572e-02  4.3736656773163650e-02  2.6690386153212061e-02  1.8132902545112656e-02  3.1111960736812824e-02  4.4973890207283748e-02  4.5157882867951131e-02  9.5027103657425033e-03  1.0864868246028794e-02  3.6670976440517672e-02  3.3686679747925448e-02  3.3477910843837402e-02  2.1448619736721842e-02  2.5849570767351202e-02  2.5857947026198501e-02  2.5683591499777884e-02  1.3360262454017420e-02  1.9643031465012204e-02  2.6590368181734315e-02  2.5908649555931095e-02  1.0012238247313456e-02  7.1432452222461446e-03  4.4392878603233134e-02  1.4591981634470846e-02  4.5988278948857757e-02  2.5082329742848863e-02  3.1477853090073518e-02  2.5169626379355076e-02  3.1724888286050544e-02  4.2672404455708732e-02  4.5149697789542816e-02  2.9702086457201234e-02  1.9219942154805894e-02  1.5023183539017099e-02  4.3776245016232437e-02  3.4868532556974481e-02  3.1723840676295779e-02  2.9683653925645415e-02  2.4272228915531890e-02  1.3549319374910431e-02  1.8757938287189076e-02  4.5530949635884915e-02  4.5768388951679527e-02  4.2420995383776069e-02  1.2105626482648296e-02  1.1385305664507661e-02  1.3833460913534889e-02  1.2665284776936256e-02  1.1000534117940625e-02  8.9309766627232567e-03  8.6113655665461357e-03  3.8399328949856711e-02  4.2295770445404363e-02  4.5072085937490680e-02  1.0930288033584585e-02  2.6028442058223321e-02  4.5263053291793212e-02  1.5491763431011865e-02  8.6887572179985360e-03  1.8590155840774367e-02  3.6909690645871879e-02  2.7606545493276229e-02  8.3130675335248306e-03  2.3644945861975387e-02  2.5880595324269045e-02  2.4343939835664945e-02  2.4640715692825558e-02  2.5347689286587323e-02  7.8729010350984899e-03  7.0952565715899181e-03  1.1431626035575739e-02  9.2638607617590695e-03  4.0907210822720037e-02  3.4673202389303270e-02  4.4299489685867569e-02  3.0679214719674563e-02  3.8515619137292983e-02  3.6547859061187411e-02  2.5434849014545548e-02  3.8052454995863370e-02  1.0967826867858492e-02  4.5676710026428632e-02  8.6056808752947214e-03  9.0164521025566744e-03  2.9192376377547954e-02  4.4265703598818790e-02  4.1840753502608616e-02  2.3788350542766311e-02  4.5934972365436984e-02  4.6024002647428890e-02  2.2997095158499254e-02  1.2605830475066859e-02  2.3080575563541820e-02  2.2698760868939977e-02  4.3612122853018361e-02  1.5603330347297511e-02  1.3514661102923282e-02  1.0173923827541460e-02  2.2954864802338364e-02  4.4197677597793687e-02  3.8049799216582844e-02  2.2723149744942168e-02  1.2203869185768955e-02  4.5179263292425852e-02  2.1469343902862988e-02  1.2572048844973129e-02  8.9797726577520807e-03  4.0826461722334569e-02  4.5654402107223359e-02  2.1088187172743175e-02  4.2711592755011775e-02  4.1626330508660520e-02  4.0765211735142040e-02  2.3211546886736680e-02  4.5538418904266915e-02  4.6027364337119958e-02  2.2749535107301308e-02  4.1146994038585689e-02  4.0640612889090946e-02  2.2279895543884903e-02  4.2539660433413756e-02  2.1779030835594147e-02  4.4578635588639857e-02  4.2618831044744523e-02  2.6714107320312042e-02  7.0476252580727863e-03  4.2167986372658818e-02  7.8480292130557634e-03  8.2564703300275887e-03  4.5705392737979321e-02  2.2550267096767416e-02  3.1650672625646858e-02  4.1996229346525436e-02  1.1591692074004628e-02  4.2018101566336889e-02  4.2946814733648551e-02  7.3040771019443201e-03  4.5310508294584100e-02  2.1573121931472254e-02  2.9425046310302495e-02  4.5391464084194345e-02  1.3496616751163829e-02  1.7432496721912206e-02  4.3047196936123265e-02  2.8655740610585095e-02  7.6567270361762819e-03  3.2209231969257644e-02  2.1615541149398537e-02  2.3969336762437041e-02  2.1264197166940387e-02  4.4605648923769295e-02  2.1469895748086859e-02  2.4180777151339830e-02  8.9036336347713529e-03  2.0735124445539425e-02  4.5445767441472384e-02  2.1529076549971046e-02  1.5774960740215158e-02  2.9526933003241957e-02  4.0853853116680834e-02  2.9116311880430477e-02  2.1473082703762469e-02  4.4619127640539269e-02  1.5718317690730055e-02  2.9033129206610105e-02  3.3381920724208085e-02  4.5423583862818015e-02  2.1349795935018245e-02  2.1341680620099498e-02  2.5846240529769863e-02  4.0058823174967374e-02  1.8585048180366274e-02  4.5186344503237108e-02  2.5278561421640065e-02  3.0054729957317443e-02  2.0769875704010784e-02  4.3921912214288643e-02  4.5261911671194512e-02  4.0713777163274678e-02  4.0896574271867485e-02  1.7496331053641803e-02  1.3656031540211401e-02  8.5799319447305011e-03  1.3949096375890181e-02  4.4974673401491465e-02  1.0128005260683477e-02  2.0537289022377576e-02  4.4270393360933295e-02  1.9960946563106135e-02  2.9717678752020266e-02  3.4405659587804234e-02  3.8888698606322797e-02  4.4978047765272068e-02  1.4199280816633785e-02  4.4423049609445382e-02  2.0052690612293401e-02  1.9802906305653321e-02  2.5897478707465251e-02  3.8736758111776001e-02  4.2422652298036413e-02  4.5637129999627310e-02  4.0943855503679613e-02  4.3580692919318868e-02  4.3415160929564385e-02  3.4389757973585400e-02  4.5100319574395691e-02  2.1165586970835856e-02  3.1575406715774121e-02  2.7325016038829229e-02  3.2109036753483249e-02  2.3456758910663445e-02  1.6114923117645598e-02  4.0449496026949770e-02  1.6718942503094827e-02  4.5964422297677658e-02  7.3869321616025245e-03  3.6611451742038961e-02  2.1429770057282901e-02  2.4836473279669726e-02  1.5091477995615958e-02  3.9863048623055383e-02  2.0071072551448535e-02  2.0411018396719872e-02  9.8382974611169408e-03  4.1242530927174913e-02  2.2842287981361068e-02  2.1025823020950497e-02  3.5729421245310748e-02  3.1430170525876662e-02  1.9772887863616351e-02  8.8116759780202253e-03  1.1495999389487439e-02  2.0161192403224542e-02  4.5722318129188526e-02  4.3448750103558878e-02  4.0238771687409268e-02  4.4702976360245089e-02  4.4181659039344789e-02  2.9443390545921662e-02  3.8675961256285307e-02  1.9908415138534901e-02  2.2950561228239449e-02  4.5220719079417923e-02  8.7642243461322402e-03  4.3946551637268794e-02  2.2680650186396055e-02  4.2518423841388341e-02  3.5324421496232557e-02  3.8426490080884126e-02  4.5835630006483108e-02  1.8695902413238857e-02  4.2757391427151147e-02  1.9083963286560306e-02  3.8524080063770505e-02  3.0608825689349108e-02  1.2743083282586097e-02  4.5901017692068537e-02  3.0566978619886727e-02  4.5873834009636488e-02  1.6594088880678291e-02  2.9086112992338518e-02  1.1779632335180456e-02  3.0210562211617997e-02  1.6788302112544212e-02  2.7605846659832907e-02  1.8447664814503807e-02  2.1174643233644940e-02  2.4427578771875624e-02  3.8065089488331254e-02  1.9189396071111153e-02  2.4966762864205450e-02  2.5977261647290088e-02  3.6217365762338756e-02  4.5934678020302551e-02  3.8472426741143498e-02  4.5937697272008630e-02  4.4844649235918993e-02  3.7298625088640999e-02  3.1511735919841667e-02  3.7133105752581677e-02  2.5285820860084875e-02  1.1777441120825937e-02  4.4605797829149280e-02  4.2