<?xml version="1.0"?>
<VTKFile type="UnstructuredGrid"  version="0.1"  >
<UnstructuredGrid>
<Piece  NumberOfPoints="20054" NumberOfCells="39478">
<Points>
<DataArray  type="Float64"  NumberOfComponents="3"  format="ascii">1 0 0  0.9997998037428526 0.02000880895389431 0  0.9991992951284931 0.04000960653046352 0  0.9981987145960756 0.05999438456007805 0  0.9967984627705549 0.07995514128721501 0  0.9949991003022806 0.09988388457430118 0  0.9928013476425149 0.1197726351017051 0  0.9902060847549715 0.139613429562597 0  0.987214350763483 0.1593983238513969 0  0.9838273435359444 0.1791193962445356 0  0.9800464192046954 0.198768750572253 0  0.9758730916235354 0.2183385193801655 0  0.9713090317615876 0.237820867079336 0  0.9663560670342555 0.2572079930835849 0  0.9610161805715396 0.2764921349327862 0  0.9552915104240066 0.2956655714008991 0  0.9491843487067304 0.3147206255874884 0  0.9426971406815462 0.3336496679914983 0  0.9358324837779861 0.3524451195660473 0  0.9285931265532873 0.3710994547530225 0  0.9209819675918909 0.3896052044962556 0  0.9130020543448703 0.4079549592320781 0  0.9046565819097542 0.4261413718560547 0  0.8959488917512338 0.4441571606647087 0  0.8868824703632656 0.4619951122710622 0  0.8774609478731046 0.4796480844928215 0  0.8676880965878291 0.4971090092120542 0  0.8575678294839372 0.5143708952052096 0  0.8471041986406199 0.5314268309423539 0  0.8363013936173391 0.5482699873544935 0  0.8251637397763597 0.5648936205678837 0  0.8136956965509062 0.5812910746042258 0  0.8019018556596399 0.5974557840456699 0  0.7897869392681683 0.6133812766635599 0  0.777355798098326 0.6290611760098652 0  0.7646134094859813 0.6444892039702628 0  0.7515648753881492 0.6596591832778468 0  0.7382154203402046 0.6745650399864606 0  0.7245703893640189 0.6892008059026586 0  0.7106352458278521 0.7035606209753273 0  0.6964155692588616 0.7176387356420051 0  0.6819170531091018 0.7314295131309636 0  0.6671455024759069 0.7449274317181303 0  0.6521068317775753 0.7581270869379442 0  0.6368070623852795 0.7710231937472638 0  0.6212523202121545 0.7836105886414595 0  0.6054488332605282 0.795884231721841 0  0.5894029291282759 0.8078392087135958 0  0.5731210324752972 0.8194707329334278 0  0.5566096624511305 0.8307741472061095 0  0.5398754300847343 0.8417449257291802 0  0.5229250356374803 0.8523786758850435 0  0.5057652659204196 0.8626711399997378 0  0.4884029915768944 0.8726181970476778 0  0.4708451643315825 0.8822158643016828 0  0.45309881420708 0.8914602989276292 0  0.4351710467091336 0.9003477995230937 0  0.4170690399816468 0.9088748075993677 0  0.398800041932607 0.9170379090062476 0  0.3803713673320772 0.9248338352990368 0  0.3617903948834157 0.9322594650472057 0  0.3430645642688987 0.9393118250841893 0  0.3242013731709288 0.9459880916978206 0  0.3052083742700172 0.952285591760924 0  0.2860931722207478 0.9582018038016155 0  0.2668634206069304 0.963734359012881 0  0.2475268188771628 0.9688810422010291 0  0.2280911092620296 0.9736397926726377 0  0.2085640736741707 0.9780087050596407 0  0.1889535305924618 0.9819860300822225 0  0.1692673319315541 0.9855701752492174 0  0.1495133598980264 0.9887597054957302 0  0.1296995238344084 0.9915533437577263 0  0.1098337570523395 0.9939499714833577 0  0.08992401365612977 0.9959486290808237 0  0.06997826535799723 0.9975485163025836 0  0.05000449828625179 0.9987489925657699 0  0.03001070978771124 0.9995495772086734 0  0.01000490522562346 0.9999499496831961 0  -0.01000490522562333 0.9999499496831961 0  -0.03001070978771133 0.9995495772086734 0  -0.05000449828625144 0.9987489925657699 0  -0.06997826535799688 0.9975485163025836 0  -0.08992401365612987 0.9959486290808237 0  -0.1098337570523394 0.9939499714833577 0  -0.1296995238344082 0.9915533437577263 0  -0.1495133598980262 0.9887597054957303 0  -0.1692673319315537 0.9855701752492174 0  -0.1889535305924614 0.9819860300822226 0  -0.2085640736741705 0.9780087050596407 0  -0.2280911092620295 0.9736397926726377 0  -0.2475268188771627 0.9688810422010291 0  -0.2668634206069302 0.9637343590128811 0  -0.2860931722207475 0.9582018038016156 0  -0.3052083742700173 0.9522855917609239 0  -0.3242013731709289 0.9459880916978205 0  -0.3430645642688986 0.9393118250841894 0  -0.3617903948834154 0.9322594650472058 0  -0.380371367332077 0.924833835299037 0  -0.3988000419326071 0.9170379090062476 0  -0.4170690399816465 0.9088748075993678 0  -0.4351710467091335 0.9003477995230939 0  -0.4530988142070799 0.8914602989276292 0  -0.4708451643315824 0.8822158643016829 0  -0.4884029915768945 0.8726181970476778 0  -0.5057652659204197 0.8626711399997378 0  -0.5229250356374801 0.8523786758850437 0  -0.5398754300847342 0.8417449257291804 0  -0.5566096624511303 0.8307741472061098 0  -0.5731210324752971 0.8194707329334279 0  -0.589402929128276 0.8078392087135957 0  -0.6054488332605281 0.7958842317218411 0  -0.6212523202121542 0.7836105886414597 0  -0.6368070623852793 0.7710231937472639 0  -0.652106831777575 0.7581270869379444 0  -0.6671455024759069 0.7449274317181304 0  -0.6819170531091018 0.7314295131309636 0  -0.6964155692588616 0.7176387356420052 0  -0.7106352458278521 0.7035606209753273 0  -0.7245703893640187 0.6892008059026588 0  -0.7382154203402043 0.6745650399864608 0  -0.751564875388149 0.6596591832778469 0  -0.7646134094859813 0.6444892039702628 0  -0.7773557980983258 0.6290611760098654 0  -0.7897869392681683 0.6133812766635599 0  -0.8019018556596398 0.59745578404567 0  -0.8136956965509062 0.5812910746042258 0  -0.8251637397763595 0.5648936205678839 0  -0.836301393617339 0.5482699873544935 0  -0.8471041986406197 0.5314268309423542 0  -0.8575678294839372 0.5143708952052097 0  -0.8676880965878292 0.497109009212054 0  -0.8774609478731045 0.4796480844928216 0  -0.8868824703632656 0.4619951122710621 0  -0.8959488917512338 0.4441571606647088 0  -0.904656581909754 0.426141371856055 0  -0.9130020543448703 0.4079549592320783 0  -0.920981967591891 0.3896052044962555 0  -0.9285931265532872 0.3710994547530226 0  -0.9358324837779861 0.3524451195660473 0  -0.9426971406815462 0.3336496679914984 0  -0.9491843487067303 0.3147206255874888 0  -0.9552915104240065 0.2956655714008993 0  -0.9610161805715396 0.2764921349327862 0  -0.9663560670342555 0.2572079930835851 0  -0.9713090317615876 0.2378208670793361 0  -0.9758730916235353 0.2183385193801658 0  -0.9800464192046954 0.198768750572253 0  -0.9838273435359444 0.1791193962445354 0  -0.987214350763483 0.159398323851397 0  -0.9902060847549714 0.1396134295625972 0  -0.9928013476425149 0.1197726351017052 0  -0.9949991003022804 0.09988388457430147 0  -0.9967984627705549 0.07995514128721509 0  -0.9981987145960756 0.05999438456007793 0  -0.9991992951284931 0.04000960653046362 0  -0.9997998037428526 0.02000880895389464 0  -1 1.224646799147353e-16 0  -0.9997998037428526 -0.0200088089538944 0  -0.9991992951284931 -0.04000960653046338 0  -0.9981987145960756 -0.05999438456007812 0  -0.9967984627705549 -0.07995514128721484 0  -0.9949991003022806 -0.09988388457430078 0  -0.9928013476425149 -0.1197726351017049 0  -0.9902060847549715 -0.1396134295625965 0  -0.9872143507634831 -0.1593983238513963 0  -0.9838273435359444 -0.1791193962445356 0  -0.9800464192046953 -0.1987687505722532 0  -0.9758730916235354 -0.2183385193801655 0  -0.9713090317615876 -0.2378208670793363 0  -0.9663560670342556 -0.2572079930835848 0  -0.9610161805715396 -0.276492134932786 0  -0.9552915104240066 -0.2956655714008991 0  -0.9491843487067305 -0.3147206255874881 0  -0.9426971406815464 -0.3336496679914978 0  -0.9358324837779862 -0.3524451195660471 0  -0.9285931265532875 -0.371099454753022 0  -0.9209819675918909 -0.3896052044962557 0  -0.9130020543448704 -0.407954959232078 0  -0.9046565819097541 -0.4261413718560548 0  -0.8959488917512338 -0.4441571606647086 0  -0.8868824703632655 -0.4619951122710623 0  -0.8774609478731046 -0.4796480844928214 0  -0.8676880965878293 -0.4971090092120538 0  -0.8575678294839373 -0.5143708952052095 0  -0.84710419864062 -0.5314268309423537 0  -0.8363013936173395 -0.5482699873544929 0  -0.8251637397763596 -0.5648936205678838 0  -0.8136956965509061 -0.5812910746042259 0  -0.8019018556596399 -0.5974557840456699 0  -0.7897869392681682 -0.61338127666356 0  -0.777355798098326 -0.6290611760098652 0  -0.7646134094859816 -0.6444892039702625 0  -0.7515648753881492 -0.6596591832778468 0  -0.7382154203402048 -0.6745650399864603 0  -0.7245703893640192 -0.6892008059026583 0  -0.7106352458278522 -0.7035606209753272 0  -0.6964155692588621 -0.7176387356420046 0  -0.6819170531091017 -0.7314295131309637 0  -0.667145502475907 -0.7449274317181303 0  -0.6521068317775756 -0.758127086937944 0  -0.6368070623852792 -0.7710231937472641 0  -0.6212523202121544 -0.7836105886414596 0  -0.6054488332605283 -0.795884231721841 0  -0.5894029291282762 -0.8078392087135956 0  -0.5731210324752977 -0.8194707329334274 0  -0.5566096624511304 -0.8307741472061095 0  -0.5398754300847344 -0.8417449257291802 0  -0.5229250356374798 -0.8523786758850437 0  -0.5057652659204195 -0.8626711399997379 0  -0.4884029915768943 -0.872618197047678 0  -0.4708451643315825 -0.8822158643016828 0  -0.4530988142070805 -0.8914602989276289 0  -0.4351710467091333 -0.900347799523094 0  -0.4170690399816467 -0.9088748075993677 0  -0.3988000419326073 -0.9170379090062475 0  -0.3803713673320777 -0.9248338352990366 0  -0.3617903948834162 -0.9322594650472055 0  -0.3430645642688988 -0.9393118250841893 0  -0.3242013731709283 -0.9459880916978207 0  -0.3052083742700169 -0.9522855917609241 0  -0.2860931722207477 -0.9582018038016155 0  -0.2668634206069305 -0.963734359012881 0  -0.2475268188771631 -0.968881042201029 0  -0.2280911092620301 -0.9736397926726376 0  -0.2085640736741706 -0.9780087050596407 0  -0.1889535305924619 -0.9819860300822225 0  -0.1692673319315544 -0.9855701752492173 0  -0.1495133598980269 -0.9887597054957302 0  -0.1296995238344092 -0.9915533437577262 0  -0.1098337570523396 -0.9939499714833577 0  -0.08992401365612945 -0.9959486290808237 0  -0.06997826535799691 -0.9975485163025836 0  -0.05000449828625168 -0.9987489925657699 0  -0.030010709787
[...]
<PointData  Scalars="Displacement"> 
<DataArray  type="Float64"  Name="Displacement"  format="ascii">0.0000000000000000e+00  0.0000000000000000e+00  0.0000000000000000e+00  0.0000000000000000e+00  0.0000000000000000e+00  0.0000000000000000e+00  0.0000000000000000e+00  0.0000000000000000e+00  0.0000000000000000e+00  0.0000000000000000e+00  0.0000000000000000e+00  0.0000000000000000e+00  0.0000000000000000e+00  0.0000000000000000e+00  0.0000000000000000e+00  0.0000000000000000e+00  0.0000000000000000e+00  0.0000000000000000e+00  0.0000000000000000e+00  0.0000000000000000e+00  0.0000000000000000e+00  0.0000000000000000e+00  0.0000000000000000e+00  0.0000000000000000e+00  0.0000000000000000e+00  0.0000000000000000e+00  0.0000000000000000e+00  0.0000000000000000e+00  0.0000000000000000e+00  0.0000000000000000e+00  0.0000000000000000e+00  0.0000000000000000e+00  0.0000000000000000e+00  0.0000000000000000e+00  0.0000000000000000e+00  0.0000000000000000e+00  0.0000000000000000e+00  0.0000000000000000e+00  0.0000000000000000e+00  0.0000000000000000e+00  0.0000000000000000e+00  0.0000000000000000e+00  0.0000000000000000e+00  0.0000000000000000e+00  0.0000000000000000e+00  0.0000000000000000e+00  0.0000000000000000e+00  0.0000000000000000e+00  0.0000000000000000e+00  0.0000000000000000e+00  0.0000000000000000e+00  0.0000000000000000e+00  0.0000000000000000e+00  0.0000000000000000e+00  0.0000000000000000e+00  0.0000000000000000e+00  0.0000000000000000e+00  0.0000000000000000e+00  0.0000000000000000e+00  0.0000000000000000e+00  0.0000000000000000e+00  0.0000000000000000e+00  0.0000000000000000e+00  0.0000000000000000e+00  0.0000000000000000e+00  0.0000000000000000e+00  0.0000000000000000e+00  0.0000000000000000e+00  0.0000000000000000e+00  0.0000000000000000e+00  0.0000000000000000e+00  0.0000000000000000e+00  0.0000000000000000e+00  0.0000000000000000e+00  0.0000000000000000e+00  0.0000000000000000e+00  0.0000000000000000e+00  0.0000000000000000e+00  0.0000000000000000e+00  0.0000000000000000e+00  0.0000000000000000e+00  0.0000000000000000e+00  0.0000000000000000e+00  0.0000000000000000e+00  0.0000000000000000e+00  0.0000000000000000e+00  0.0000000000000000e+00  0.0000000000000000e+00  0.0000000000000000e+00  0.0000000000000000e+00  0.0000000000000000e+00  0.0000000000000000e+00  0.0000000000000000e+00  0.0000000000000000e+00  0.0000000000000000e+00  0.0000000000000000e+00  0.0000000000000000e+00  0.0000000000000000e+00  0.0000000000000000e+00  0.0000000000000000e+00  0.0000000000000000e+00  0.0000000000000000e+00  0.0000000000000000e+00  0.0000000000000000e+00  0.0000000000000000e+00  0.0000000000000000e+00  0.0000000000000000e+00  0.0000000000000000e+00  0.0000000000000000e+00  0.0000000000000000e+00  0.0000000000000000e+00  0.0000000000000000e+00  0.0000000000000000e+00  0.0000000000000000e+00  0.0000000000000000e+00  0.0000000000000000e+00  0.0000000000000000e+00  0.0000000000000000e+00  0.0000000000000000e+00  0.0000000000000000e+00  0.0000000000000000e+00  0.0000000000000000e+00  0.0000000000000000e+00  0.0000000000000000e+00  0.0000000000000000e+00  0.0000000000000000e+00  0.0000000000000000e+00  0.0000000000000000e+00  0.0000000000000000e+00  0.0000000000000000e+00  0.0000000000000000e+00  0.0000000000000000e+00  0.0000000000000000e+00  0.0000000000000000e+00  0.0000000000000000e+00  0.0000000000000000e+00  0.0000000000000000e+00  0.0000000000000000e+00  0.0000000000000000e+00  0.0000000000000000e+00  0.0000000000000000e+00  0.0000000000000000e+00  0.0000000000000000e+00  0.0000000000000000e+00  0.0000000000000000e+00  0.0000000000000000e+00  0.0000000000000000e+00  0.0000000000000000e+00  0.0000000000000000e+00  0.0000000000000000e+00  0.0000000000000000e+00  0.0000000000000000e+00  0.0000000000000000e+00  0.0000000000000000e+00  0.0000000000000000e+00  0.0000000000000000e+00  0.0000000000000000e+00  0.0000000000000000e+00  0.0000000000000000e+00  0.0000000000000000e+00  0.0000000000000000e+00  0.0000000000000000e+00  0.0000000000000000e+00  0.0000000000000000e+00  0.0000000000000000e+00  0.0000000000000000e+00  0.0000000000000000e+00  0.0000000000000000e+00  0.0000000000000000e+00  0.0000000000000000e+00  0.0000000000000000e+00  0.0000000000000000e+00  0.0000000000000000e+00  0.0000000000000000e+00  0.0000000000000000e+00  0.0000000000000000e+00  0.0000000000000000e+00  0.0000000000000000e+00  0.0000000000000000e+00  0.0000000000000000e+00  0.0000000000000000e+00  0.0000000000000000e+00  0.0000000000000000e+00  0.0000000000000000e+00  0.0000000000000000e+00  0.0000000000000000e+00  0.0000000000000000e+00  0.0000000000000000e+00  0.0000000000000000e+00  0.0000000000000000e+00  0.0000000000000000e+00  0.0000000000000000e+00  0.0000000000000000e+00  0.0000000000000000e+00  0.0000000000000000e+00  0.0000000000000000e+00  0.0000000000000000e+00  0.0000000000000000e+00  0.0000000000000000e+00  0.0000000000000000e+00  0.0000000000000000e+00  0.0000000000000000e+00  0.0000000000000000e+00  0.0000000000000000e+00  0.0000000000000000e+00  0.0000000000000000e+00  0.0000000000000000e+00  0.0000000000000000e+00  0.0000000000000000e+00  0.0000000000000000e+00  0.0000000000000000e+00  0.0000000000000000e+00  0.0000000000000000e+00  0.0000000000000000e+00  0.0000000000000000e+00  0.0000000000000000e+00  0.0000000000000000e+00  0.0000000000000000e+00  0.0000000000000000e+00  0.0000000000000000e+00  0.0000000000000000e+00  0.0000000000000000e+00  0.0000000000000000e+00  0.0000000000000000e+00  0.0000000000000000e+00  0.0000000000000000e+00  0.0000000000000000e+00  0.0000000000000000e+00  0.0000000000000000e+00  0.0000000000000000e+00  0.0000000000000000e+00  0.0000000000000000e+00  0.0000000000000000e+00  0.0000000000000000e+00  0.0000000000000000e+00  0.0000000000000000e+00  0.0000000000000000e+00  0.0000000000000000e+00  0.0000000000000000e+00  0.0000000000000000e+00  0.0000000000000000e+00  0.0000000000000000e+00  0.0000000000000000e+00  0.0000000000000000e+00  0.0000000000000000e+00  0.0000000000000000e+00  0.0000000000000000e+00  0.0000000000000000e+00  0.0000000000000000e+00  0.0000000000000000e+00  0.0000000000000000e+00  0.0000000000000000e+00  0.0000000000000000e+00  0.0000000000000000e+00  0.0000000000000000e+00  0.0000000000000000e+00  0.0000000000000000e+00  0.0000000000000000e+00  0.0000000000000000e+00  0.0000000000000000e+00  0.0000000000000000e+00  0.0000000000000000e+00  0.0000000000000000e+00  0.0000000000000000e+00  0.0000000000000000e+00  0.0000000000000000e+00  0.0000000000000000e+00  0.0000000000000000e+00  0.0000000000000000e+00  0.0000000000000000e+00  0.0000000000000000e+00  0.0000000000000000e+00  0.0000000000000000e+00  0.0000000000000000e+00  0.0000000000000000e+00  0.0000000000000000e+00  0.0000000000000000e+00  0.0000000000000000e+00  0.0000000000000000e+00  0.0000000000000000e+00  0.0000000000000000e+00  0.0000000000000000e+00  0.0000000000000000e+00  0.0000000000000000e+00  0.0000000000000000e+00  0.0000000000000000e+00  0.0000000000000000e+00  0.0000000000000000e+00  0.0000000000000000e+00  0.0000000000000000e+00  0.0000000000000000e+00  0.0000000000000000e+00  0.0000000000000000e+00  0.0000000000000000e+00  0.0000000000000000e+00  0.0000000000000000e+00  0.0000000000000000e+00  0.0000000000000000e+00  0.0000000000000000e+00  0.0000000000000000e+00  0.0000000000000000e+00  0.0000000000000000e+00  0.0000000000000000e+00  0.0000000000000000e+00  0.0000000000000000e+00  0.0000000000000000e+00  0.0000000000000000e+00  0.0000000000000000e+00  0.0000000000000000e+00  0.0000000000000000e+00  0.0000000000000000e+00  0.0000000000000000e+00  0.0000000000000000e+00  0.0000000000000000e+00  2.2098642206808170e+146  -3.4454848633483949e+141  2.3575415599074719e+142  1.0249531446021977e+144  1.4823228408498935e+142  1.9480463150683012e+143  5.1265270244282207e+139  -1.6156541487847507e+137  -7.9908135949699316e+138  1.2676410761461075e+137  -1.5141185477022951e+138  4.0512936690202283e+146  1.1309305874912384e+139  5.0773395609716306e+136  -1.7844275642099937e+145  -4.3045358627219467e+144  -7.2375672016615624e+136  -4.0050418451977976e+136  1.6278030685840280e+133  -2.1785360417996444e+137  -5.1056138004326863e+134  1.2788164346016542e+136  -4.6440366770474469e+134  2.1052477168808666e+143  -2.1412275628812806e+146  2.0899637998805410e+145  2.3497893245917842e+136  1.0658563813838064e+135  -6.2882039529664538e+136  -7.3869853522070072e+142  -1.6641944908440936e+134  1.4714914043291312e+146  2.7999769497768368e+147  2.2811106501441819e+146  4.2160206849076918e+135  -1.6445567380051488e+133  -2.1206287825679061e+132  3.9445405929421785e+133  1.1669544159723504e+135  -1.3590609163896895e+141  2.7335621058323298e+142  3.3873678066382069e+137  -3.5605272285068259e+140  6.1581331511525954e+144  9.5521012410249048e+132  -7.2930051429705809e+132  -1.4577156012391785e+133  1.9918470489083281e+132  -1.7613349603025316e+140  -1.6928723034314858e+139  -7.9248033085841972e+139  -2.8664810979969447e+139  8.8035764801474919e+140  -4.4069275694663768e+143  1.5638903265887012e+136  -4.3733135409288879e+145  -3.5520396383670977e+133  2.7790307263111450e+134  -6.1489130814294629e+143  1.9766765747942166e+133  1.5911949334390395e+134  3.5505994240503472e+137  -8.3712185667803000e+132  3.6363917402912781e+132  -7.0437100646916061e+145  5.6141221362529286e+145  -7.1612896947031613e+146  -3.1545693570136671e+142  -4.9304921864515545e+145  -8.1896822035801998e+144  -1.7839377705902095e+145  3.9948083455818791e+140  2.1831462781355679e+141  -4.7757648995506341e+139  -6.1974591772689559e+139  1.0712845761274139e+143  -5.3155003061475811e+132  2.5732030491091833e+143  2.0085790690145688e+145  -6.5019960323315781e+137  -4.4589579614045759e+133  1.8608379291090117e+141  -2.4532512990682790e+133  -1.1776138131652794e+132  6.8374796083741082e+131  2.9659393035495306e+148  -7.4674528074235152e+133  2.1265149860347057e+132  1.7833053034527166e+131  9.8160281395007972e+144  -4.3582214448457460e+135  -1.2820707725034281e+132  1.0159445672401141e+139  4.6924694027684621e+131  -1.7248292543931937e+137  -2.8737225124794981e+148  -1.0080154757338647e+132  6.7994128205419388e+132  2.8431197076237702e+136  4.0198593634596237e+134  -4.4167509889482295e+138  6.7017969442956489e+137  2.2316580862677914e+132  -2.4795021796752287e+143  1.0929181021354567e+141  -9.9740996307142965e+140  1.5402124261029314e+143  -5.2601993978137911e+136  -3.3817274431066842e+137  -4.2351545556841723e+132  8.8879690056915892e+142  1.3080074111617150e+134  -2.2220545131565471e+130  -2.1358036221212688e+139  -1.6027798342414789e+141  -9.0477272531727305e+133  -2.0698613604826309e+132  9.1045603241513074e+131  -1.5852584925507724e+130  -3.5947786939111337e+145  -1.4323629062487965e+144  5.2433476502810687e+135  -7.8955607735678603e+147  -4.2803604915468223e+133  -1.2597970802886294e+138  -4.9878741272718103e+137  2.3929590987184910e+131  2.3942822532656034e+131  4.2086625848135476e+135  1.6548999837311631e+138  -8.6275301762830789e+137  -6.8182297835410170e+136  1.2117495375915599e+140  -8.1423472827217860e+141  4.9882789728383079e+138  3.1245168845089921e+136  5.5105119024893033e+131  1.0426784228411786e+150  1.0232587782182289e+144  -6.6393270163211040e+142  -9.5302207907626561e+145  1.2251487703686706e+149  -1.0614052792465010e+134  4.2051569613137600e+146  1.9108101092285190e+140  1.5807349610220190e+131  -1.5333502829665841e+134  3.2715654184742248e+143  2.2655797096051645e+147  -2.1931304569262588e+137  -1.6076478817721039e+131  7.5206489891601056e+141  -7.7651443470093210e+146  -8.1524737982838812e+133  2.3075869189034508e+134  -5.7862314859237621e+131  4.3260286066831084e+130  -5.4927246697021395e+135  7.2845451996054404e+131  -1.5486764714377651e+130  -1.2882811232269456e+130  -1.4953605793563384e+134  3.4291683355886558e+139  -1.4362005941710020e+132  -4.0819063800013133e+135  -7.0581018136944673e+141  -2.1315858309052127e+137  3.3035041116361692e+132  1.4643589431893071e+130  -6.9369280560392737e+133  6.6056767192747739e+140  3.6477911472498647e+145  1.4082823107768731e+134  -4.8152350877466848e+144  1.0044005450992326e+131  -2.4382171882603733e+141  7.5188347690909782e+130  4.2687516373745453e+134  6.9281679582792623e+129  -4.9330372676190673e+141  -3.0989319551797438e+133  9.5150391216940141e+142  5.4922279971234273e+138  1.2284773460523020e+148  -7.2827009053085975e+129  -4.4065842686074939e+138  6.2962622468294489e+137  1.5151494743958030e+142  9.6603975542864039e+130  -6.8939345727761545e+132  -6.4611621173615687e+130  5.7480913032997571e+146  2.2891782831638682e+130  -9.1737971524313310e+132  2.0576583736498373e+144  -9.8890443398806469e+145  2.2890393014495910e+135  4.5290420783052638e+135  -1.6159360045863655e+142  -1.9645874728695141e+138  9.4149953180738651e+139  7.2118101576919612e+139  4.3287605041118563e+140  3.5143973758470075e+136  1.7639488439907155e+138  -4.6644989170401278e+134  2.9800817667396867e+134  1.1116457882528445e+145  2.0721918169590045e+133  1.4905290525685503e+135  1.3968938651557600e+135  -1.3533677880318194e+144  4.2715463803719683e+144  -1.7638291296609935e+134  -4.9476225995150374e+130  -8.3840316166150939e+136  -2.3726053449701148e+144  -1.7164589701215872e+131  -8.1611695781090085e+137  -7.7798531964028827e+137  1.7824856013163952e+133  -1.0569989698985300e+139  -1.4481286015351775e+143  8.7629623532456018e+138  -7.0916983149161101e+137  2.4696175216233031e+131  -6.7476703573891391e+135  6.4499886566772121e+130  -3.9485750081632431e+136  -7.4852065849909156e+129  -7.3706345702040550e+131  1.2958950239518624e+132  -5.2436373031430523e+131  -1.7281915916000380e+134  6.6891347939750180e+131  -1.4384358236631100e+141  -4.7216435713064617e+138  -2.7410715971531606e+134  4.5984812908841815e+133  1.7475001880406494e+144  3.5514418187796267e+145  8.4041485234926512e+138  -3.5374034872744310e+139  8.9916206274992180e+131  -4.6941953740700402e+142  -2.8802735253033311e+134  -2.2740488374866316e+131  -1.4844778149633636e+130  -1.0188008202048431e+144  1.0843698128034101e+141  2.4765618492766104e+140  8.8531011680759320e+138  -6.3182376304286410e+146  7.8691335542161066e+145  -9.5730565717201634e+132  -9.9279673094274434e+144  3.1254036254751694e+137  -4.2678266103110168e+141  -7.1200866347860557e+131  1.0526084907897443e+130  -6.1094811378225517e+130  -7.5530280499264615e+136  -5.9657286529838871e+134  2.6783751552202414e+142  -1.0637637120324793e+143  7.0973485598193517e+144  7.3476590627938466e+133  -7.6510506267457523e+131  3.9908828727639985e+130  -4.0195763133023784e+139  5.2006907709319088e+128  -7.2447233041994839e+145  5.6723572840201285e+143  -7.5757698328261216e+135  9.9046099275278491e+133  2.0221549226010315e+135  3.4953658151785432e+147  -5.1446438356679196e+144  -1.5998215298050416e+143  -6.5463646338795235e+141  8.5605856641084563e+143  1.8370969096595387e+144  3.9848656353918147e+146  4.6816943345259080e+140  2.4123496487313645e+137  2.5311077873952504e+135  2.6965951505977601e+148  4.7044442993522203e+131  -5.9295288572850023e+133  9.3571465495831917e+143  1.5946169932933072e+147  4.9288075553175305e+143  1.3492049570210560e+139  2.0575059777358065e+140  1.4345021445593306e+148  2.2484406132141741e+131  2.7917731032214100e+144  -6.2071412982054051e+130  -1.3480733442976312e+130  -7.6441250776379594e+130  -1.0317672028612836e+145  1.3615572167099298e+144  1.9043815268031506e+146  4.6756989358846074e+146  7.9250257287369786e+139  1.7686979503072907e+137  -6.4983429014279098e+136  -1.7775521266647291e+140  -6.6889918869061818e+140  2.4785035731588161e+138  5.2489630218923177e+142  -3.4287243235562713e+139  -4.2716966830846378e+145  -6.3854467249773636e+134  -3.0250194215766525e+145  3.7128942031437572e+144  -1.3353644499467926e+141  2.8759261537315421e+135  -1.8139922136723731e+136  -1.7051025341216256e+131  1.0714340861840109e+135  4.2158442669255536e+134  -6.6570274785989362e+131  2.3578212959442837e+145  1.3620358060622191e+131  -1.4960917718720724e+131  2.1800834175666099e+132  3.1480133367966278e+144  3.2759835948478161e+142  2.9878762545776528e+145  4.8319138715787629e+130  8.8144572371647111e+135  6.3083787517384315e+137  -8.3342426509203630e+142  1.0793224979062764e+143  -1.6536792715532835e+136  -5.3319825501944321e+142  2.1538404979842688e+142  2.2770332400955026e+149  5.7277634242704494e+136  2.2664777722268499e+134  -6.6775837110830054e+140  -7.5777071130234805e+131  4.3202962807145369e+130  6.5639487747144405e+138  -2.5839906731864898e+130  6.9329994031203658e+134  -7.3606071774614788e+136  3.5462190489727670e+129  -1.0094792312164727e+137  1.3373106673507577e+138  -1.6931473179318843e+130  -6.3363600135901609e+133  -1.7193679723691471e+130  7.3394952681988813e+133  -2.2984985282766901e+134  -2.2606000053838216e+139  3.4173141590570369e+147  -9.8025086919180385e+131  -1.9156533753326954e+145  -2.5445398378958125e+145  -8.5502866875418300e+134  -4.0754108209004943e+130  1.3607688475874373e+139  1.0229716606756911e+134  2.1638921915692327e+147  6.0618090941741547e+132  -3.0106465969234179e+135  7.1584257049864643e+145  -8.3525341312329504e+132  -7.0048583849121661e+128  1.9480157769400047e+130  7.6158705792350374e+134  5.6818620599066376e+143  -8.3596401558720789e+142  -6.2493043163504027e+136  1.1193264765310240e+134  -9.0574717672899315e+146  3.4863528186947902e+138  1.6772577330037991e+130  -3.8444711383065072e+141  -5.8227016758216172e+130  -8.1604513052123717e+132  -6.6247425285316774e+141  -1.3708957665158008e+130  -4.9240992275389975e+148  -8.3692662616623521e+130  2.9206002116082705e+133  6.5241794126601439e+129  3.4335744675981700e+142  -5.1339475696553465e+138  -6.0523839371825107e+135  -8.8255525614497313e+140  -3.2580218041374848e+129  2.7350113576683472e+134  9.4795143387553322e+142  -2.2563074115928269e+132  -2.4222927409461382e+140  2.4428023472781753e+134  4.9650669477838488e+129  9.1832078588775186e+129  -8.7487582797834408e+141  1.7903873139160678e+132  -1.4474812010247631e+143  -2.5990819722579688e+135  1.6353617067643017e+144  1.0461084419682991e+139  -9.3018978374184913e+130  -3.3083831221718837e+133  5.0542080393944095e+133  -8.0346762898802409e+132  8.1580061156883625e+132  6.1931588629630968e+144  6.5469063503390126e+145  1.3844573421967604e+149  6.6278414068374349e+144  -9.0547615446300105e+133  2.7368254013419686e+147  -1.6138097832147371e+144  -1.0359002918837176e+134  6.4911637633917462e+129  -1.1120209792976627e+130  -8.6626264939270709e+137  -2.9037666793663718e+137  -8.1101663936734446e+135  2.0615527576978273e+144  -8.6451886433804931e+136  -5.4271876334570300e+130  -9.6115625270816271e+128  9.1744663956862723e+129  -4.0374396795126519e+138  1.0372306779831799e+133  1.0103722228100217e+137  3.4658759180844678e+132  -4.5611645285784396e+131  8.7606828594758809e+132  -8.6356435507414517e+138  -5.5949320122600446e+132  4.2984889580592672e+141  4.4291414233354821e+140  -1.7503033109749977e+141  -1.2686271174923658e+139  -6.0821944364595587e+140  7.5267859579763240e+141  2.8406072864659602e+133  1.4490662218438741e+145  2.8235745191308943e+134  -3.6905534398769227e+147  1.7576763308444292e+137  -8.3625077991507406e+142  1.3946073156171786e+141  6.9746935774121077e+148  -3.5261612623614549e+133  -1.1487173444013472e+131  -7.0938583441345865e+132  3.3721409082863204e+146  4.8778176199270927e+136  -2.7183508999396205e+141  6.0059730751506934e+141  -7.6787904133912379e+131  -1.6131675294440304e+139  -1.8802123569956008e+130  7.5437047615484661e+147  8.5208064519554865e+147  5.1281139711218219e+145  -5.8544544506471047e+135  -4.7685122537024406e+133  -3.2045506442009122e+133  6.6107331904340571e+136  7.2341157784351496e+138  -4.4755494217386832e+137  5.4528778875748252e+132  2.4485985544828689e+142  1.0538883880894529e+140  -1.6746124976268700e+135  -6.1284049365845098e+147  -2.7390458738929062e+136  7.9429566918009569e+140  1.4270027647196220e+136  2.3063328707372913e+139  -1.8390116158966373e+137  -1.1588235528421616e+135  2.1878128172180054e+130  2.5719016178768701e+132  9.2641178160342693e+129  