<?xml version="1.0"?>
<VTKFile type="UnstructuredGrid"  version="0.1"  >
<UnstructuredGrid>
<Piece  NumberOfPoints="20054" NumberOfCells="39478">
<Points>
<DataArray  type="Float64"  NumberOfComponents="3"  format="ascii">1 0 0  0.9997998037428526 0.02000880895389431 0  0.9991992951284931 0.04000960653046352 0  0.9981987145960756 0.05999438456007805 0  0.9967984627705549 0.07995514128721501 0  0.9949991003022806 0.09988388457430118 0  0.9928013476425149 0.1197726351017051 0  0.9902060847549715 0.139613429562597 0  0.987214350763483 0.1593983238513969 0  0.9838273435359444 0.1791193962445356 0  0.9800464192046954 0.198768750572253 0  0.9758730916235354 0.2183385193801655 0  0.9713090317615876 0.237820867079336 0  0.9663560670342555 0.2572079930835849 0  0.9610161805715396 0.2764921349327862 0  0.9552915104240066 0.2956655714008991 0  0.9491843487067304 0.3147206255874884 0  0.9426971406815462 0.3336496679914983 0  0.9358324837779861 0.3524451195660473 0  0.9285931265532873 0.3710994547530225 0  0.9209819675918909 0.3896052044962556 0  0.9130020543448703 0.4079549592320781 0  0.9046565819097542 0.4261413718560547 0  0.8959488917512338 0.4441571606647087 0  0.8868824703632656 0.4619951122710622 0  0.8774609478731046 0.4796480844928215 0  0.8676880965878291 0.4971090092120542 0  0.8575678294839372 0.5143708952052096 0  0.8471041986406199 0.5314268309423539 0  0.8363013936173391 0.5482699873544935 0  0.8251637397763597 0.5648936205678837 0  0.8136956965509062 0.5812910746042258 0  0.8019018556596399 0.5974557840456699 0  0.7897869392681683 0.6133812766635599 0  0.777355798098326 0.6290611760098652 0  0.7646134094859813 0.6444892039702628 0  0.7515648753881492 0.6596591832778468 0  0.7382154203402046 0.6745650399864606 0  0.7245703893640189 0.6892008059026586 0  0.7106352458278521 0.7035606209753273 0  0.6964155692588616 0.7176387356420051 0  0.6819170531091018 0.7314295131309636 0  0.6671455024759069 0.7449274317181303 0  0.6521068317775753 0.7581270869379442 0  0.6368070623852795 0.7710231937472638 0  0.6212523202121545 0.7836105886414595 0  0.6054488332605282 0.795884231721841 0  0.5894029291282759 0.8078392087135958 0  0.5731210324752972 0.8194707329334278 0  0.5566096624511305 0.8307741472061095 0  0.5398754300847343 0.8417449257291802 0  0.5229250356374803 0.8523786758850435 0  0.5057652659204196 0.8626711399997378 0  0.4884029915768944 0.8726181970476778 0  0.4708451643315825 0.8822158643016828 0  0.45309881420708 0.8914602989276292 0  0.4351710467091336 0.9003477995230937 0  0.4170690399816468 0.9088748075993677 0  0.398800041932607 0.9170379090062476 0  0.3803713673320772 0.9248338352990368 0  0.3617903948834157 0.9322594650472057 0  0.3430645642688987 0.9393118250841893 0  0.3242013731709288 0.9459880916978206 0  0.3052083742700172 0.952285591760924 0  0.2860931722207478 0.9582018038016155 0  0.2668634206069304 0.963734359012881 0  0.2475268188771628 0.9688810422010291 0  0.2280911092620296 0.9736397926726377 0  0.2085640736741707 0.9780087050596407 0  0.1889535305924618 0.9819860300822225 0  0.1692673319315541 0.9855701752492174 0  0.1495133598980264 0.9887597054957302 0  0.1296995238344084 0.9915533437577263 0  0.1098337570523395 0.9939499714833577 0  0.08992401365612977 0.9959486290808237 0  0.06997826535799723 0.9975485163025836 0  0.05000449828625179 0.9987489925657699 0  0.03001070978771124 0.9995495772086734 0  0.01000490522562346 0.9999499496831961 0  -0.01000490522562333 0.9999499496831961 0  -0.03001070978771133 0.9995495772086734 0  -0.05000449828625144 0.9987489925657699 0  -0.06997826535799688 0.9975485163025836 0  -0.08992401365612987 0.9959486290808237 0  -0.1098337570523394 0.9939499714833577 0  -0.1296995238344082 0.9915533437577263 0  -0.1495133598980262 0.9887597054957303 0  -0.1692673319315537 0.9855701752492174 0  -0.1889535305924614 0.9819860300822226 0  -0.2085640736741705 0.9780087050596407 0  -0.2280911092620295 0.9736397926726377 0  -0.2475268188771627 0.9688810422010291 0  -0.2668634206069302 0.9637343590128811 0  -0.2860931722207475 0.9582018038016156 0  -0.3052083742700173 0.9522855917609239 0  -0.3242013731709289 0.9459880916978205 0  -0.3430645642688986 0.9393118250841894 0  -0.3617903948834154 0.9322594650472058 0  -0.380371367332077 0.924833835299037 0  -0.3988000419326071 0.9170379090062476 0  -0.4170690399816465 0.9088748075993678 0  -0.4351710467091335 0.9003477995230939 0  -0.4530988142070799 0.8914602989276292 0  -0.4708451643315824 0.8822158643016829 0  -0.4884029915768945 0.8726181970476778 0  -0.5057652659204197 0.8626711399997378 0  -0.5229250356374801 0.8523786758850437 0  -0.5398754300847342 0.8417449257291804 0  -0.5566096624511303 0.8307741472061098 0  -0.5731210324752971 0.8194707329334279 0  -0.589402929128276 0.8078392087135957 0  -0.6054488332605281 0.7958842317218411 0  -0.6212523202121542 0.7836105886414597 0  -0.6368070623852793 0.7710231937472639 0  -0.652106831777575 0.7581270869379444 0  -0.6671455024759069 0.7449274317181304 0  -0.6819170531091018 0.7314295131309636 0  -0.6964155692588616 0.7176387356420052 0  -0.7106352458278521 0.7035606209753273 0  -0.7245703893640187 0.6892008059026588 0  -0.7382154203402043 0.6745650399864608 0  -0.751564875388149 0.6596591832778469 0  -0.7646134094859813 0.6444892039702628 0  -0.7773557980983258 0.6290611760098654 0  -0.7897869392681683 0.6133812766635599 0  -0.8019018556596398 0.59745578404567 0  -0.8136956965509062 0.5812910746042258 0  -0.8251637397763595 0.5648936205678839 0  -0.836301393617339 0.5482699873544935 0  -0.8471041986406197 0.5314268309423542 0  -0.8575678294839372 0.5143708952052097 0  -0.8676880965878292 0.497109009212054 0  -0.8774609478731045 0.4796480844928216 0  -0.8868824703632656 0.4619951122710621 0  -0.8959488917512338 0.4441571606647088 0  -0.904656581909754 0.426141371856055 0  -0.9130020543448703 0.4079549592320783 0  -0.920981967591891 0.3896052044962555 0  -0.9285931265532872 0.3710994547530226 0  -0.9358324837779861 0.3524451195660473 0  -0.9426971406815462 0.3336496679914984 0  -0.9491843487067303 0.3147206255874888 0  -0.9552915104240065 0.2956655714008993 0  -0.9610161805715396 0.2764921349327862 0  -0.9663560670342555 0.2572079930835851 0  -0.9713090317615876 0.2378208670793361 0  -0.9758730916235353 0.2183385193801658 0  -0.9800464192046954 0.198768750572253 0  -0.9838273435359444 0.1791193962445354 0  -0.987214350763483 0.159398323851397 0  -0.9902060847549714 0.1396134295625972 0  -0.9928013476425149 0.1197726351017052 0  -0.9949991003022804 0.09988388457430147 0  -0.9967984627705549 0.07995514128721509 0  -0.9981987145960756 0.05999438456007793 0  -0.9991992951284931 0.04000960653046362 0  -0.9997998037428526 0.02000880895389464 0  -1 1.224646799147353e-16 0  -0.9997998037428526 -0.0200088089538944 0  -0.9991992951284931 -0.04000960653046338 0  -0.9981987145960756 -0.05999438456007812 0  -0.9967984627705549 -0.07995514128721484 0  -0.9949991003022806 -0.09988388457430078 0  -0.9928013476425149 -0.1197726351017049 0  -0.9902060847549715 -0.1396134295625965 0  -0.9872143507634831 -0.1593983238513963 0  -0.9838273435359444 -0.1791193962445356 0  -0.9800464192046953 -0.1987687505722532 0  -0.9758730916235354 -0.2183385193801655 0  -0.9713090317615876 -0.2378208670793363 0  -0.9663560670342556 -0.2572079930835848 0  -0.9610161805715396 -0.276492134932786 0  -0.9552915104240066 -0.2956655714008991 0  -0.9491843487067305 -0.3147206255874881 0  -0.9426971406815464 -0.3336496679914978 0  -0.9358324837779862 -0.3524451195660471 0  -0.9285931265532875 -0.371099454753022 0  -0.9209819675918909 -0.3896052044962557 0  -0.9130020543448704 -0.407954959232078 0  -0.9046565819097541 -0.4261413718560548 0  -0.8959488917512338 -0.4441571606647086 0  -0.8868824703632655 -0.4619951122710623 0  -0.8774609478731046 -0.4796480844928214 0  -0.8676880965878293 -0.4971090092120538 0  -0.8575678294839373 -0.5143708952052095 0  -0.84710419864062 -0.5314268309423537 0  -0.8363013936173395 -0.5482699873544929 0  -0.8251637397763596 -0.5648936205678838 0  -0.8136956965509061 -0.5812910746042259 0  -0.8019018556596399 -0.5974557840456699 0  -0.7897869392681682 -0.61338127666356 0  -0.777355798098326 -0.6290611760098652 0  -0.7646134094859816 -0.6444892039702625 0  -0.7515648753881492 -0.6596591832778468 0  -0.7382154203402048 -0.6745650399864603 0  -0.7245703893640192 -0.6892008059026583 0  -0.7106352458278522 -0.7035606209753272 0  -0.6964155692588621 -0.7176387356420046 0  -0.6819170531091017 -0.7314295131309637 0  -0.667145502475907 -0.7449274317181303 0  -0.6521068317775756 -0.758127086937944 0  -0.6368070623852792 -0.7710231937472641 0  -0.6212523202121544 -0.7836105886414596 0  -0.6054488332605283 -0.795884231721841 0  -0.5894029291282762 -0.8078392087135956 0  -0.5731210324752977 -0.8194707329334274 0  -0.5566096624511304 -0.8307741472061095 0  -0.5398754300847344 -0.8417449257291802 0  -0.5229250356374798 -0.8523786758850437 0  -0.5057652659204195 -0.8626711399997379 0  -0.4884029915768943 -0.872618197047678 0  -0.4708451643315825 -0.8822158643016828 0  -0.4530988142070805 -0.8914602989276289 0  -0.4351710467091333 -0.900347799523094 0  -0.4170690399816467 -0.9088748075993677 0  -0.3988000419326073 -0.9170379090062475 0  -0.3803713673320777 -0.9248338352990366 0  -0.3617903948834162 -0.9322594650472055 0  -0.3430645642688988 -0.9393118250841893 0  -0.3242013731709283 -0.9459880916978207 0  -0.3052083742700169 -0.9522855917609241 0  -0.2860931722207477 -0.9582018038016155 0  -0.2668634206069305 -0.963734359012881 0  -0.2475268188771631 -0.968881042201029 0  -0.2280911092620301 -0.9736397926726376 0  -0.2085640736741706 -0.9780087050596407 0  -0.1889535305924619 -0.9819860300822225 0  -0.1692673319315544 -0.9855701752492173 0  -0.1495133598980269 -0.9887597054957302 0  -0.1296995238344092 -0.9915533437577262 0  -0.1098337570523396 -0.9939499714833577 0  -0.08992401365612945 -0.9959486290808237 0  -0.06997826535799691 -0.9975485163025836 0  -0.05000449828625168 -0.9987489925657699 0  -0.030010709787
[...]
<PointData  Scalars="Displacement"> 
<DataArray  type="Float64"  Name="Displacement"  format="ascii">0.0000000000000000e+00  0.0000000000000000e+00  0.0000000000000000e+00  0.0000000000000000e+00  0.0000000000000000e+00  0.0000000000000000e+00  0.0000000000000000e+00  0.0000000000000000e+00  0.0000000000000000e+00  0.0000000000000000e+00  0.0000000000000000e+00  0.0000000000000000e+00  0.0000000000000000e+00  0.0000000000000000e+00  0.0000000000000000e+00  0.0000000000000000e+00  0.0000000000000000e+00  0.0000000000000000e+00  0.0000000000000000e+00  0.0000000000000000e+00  0.0000000000000000e+00  0.0000000000000000e+00  0.0000000000000000e+00  0.0000000000000000e+00  0.0000000000000000e+00  0.0000000000000000e+00  0.0000000000000000e+00  0.0000000000000000e+00  0.0000000000000000e+00  0.0000000000000000e+00  0.0000000000000000e+00  0.0000000000000000e+00  0.0000000000000000e+00  0.0000000000000000e+00  0.0000000000000000e+00  0.0000000000000000e+00  0.0000000000000000e+00  0.0000000000000000e+00  0.0000000000000000e+00  0.0000000000000000e+00  0.0000000000000000e+00  0.0000000000000000e+00  0.0000000000000000e+00  0.0000000000000000e+00  0.0000000000000000e+00  0.0000000000000000e+00  0.0000000000000000e+00  0.0000000000000000e+00  0.0000000000000000e+00  0.0000000000000000e+00  0.0000000000000000e+00  0.0000000000000000e+00  0.0000000000000000e+00  0.0000000000000000e+00  0.0000000000000000e+00  0.0000000000000000e+00  0.0000000000000000e+00  0.0000000000000000e+00  0.0000000000000000e+00  0.0000000000000000e+00  0.0000000000000000e+00  0.0000000000000000e+00  0.0000000000000000e+00  0.0000000000000000e+00  0.0000000000000000e+00  0.0000000000000000e+00  0.0000000000000000e+00  0.0000000000000000e+00  0.0000000000000000e+00  0.0000000000000000e+00  0.0000000000000000e+00  0.0000000000000000e+00  0.0000000000000000e+00  0.0000000000000000e+00  0.0000000000000000e+00  0.0000000000000000e+00  0.0000000000000000e+00  0.0000000000000000e+00  0.0000000000000000e+00  0.0000000000000000e+00  0.0000000000000000e+00  0.0000000000000000e+00  0.0000000000000000e+00  0.0000000000000000e+00  0.0000000000000000e+00  0.0000000000000000e+00  0.0000000000000000e+00  0.0000000000000000e+00  0.0000000000000000e+00  0.0000000000000000e+00  0.0000000000000000e+00  0.0000000000000000e+00  0.0000000000000000e+00  0.0000000000000000e+00  0.0000000000000000e+00  0.0000000000000000e+00  0.0000000000000000e+00  0.0000000000000000e+00  0.0000000000000000e+00  0.0000000000000000e+00  0.0000000000000000e+00  0.0000000000000000e+00  0.0000000000000000e+00  0.0000000000000000e+00  0.0000000000000000e+00  0.0000000000000000e+00  0.0000000000000000e+00  0.0000000000000000e+00  0.0000000000000000e+00  0.0000000000000000e+00  0.0000000000000000e+00  0.0000000000000000e+00  0.0000000000000000e+00  0.0000000000000000e+00  0.0000000000000000e+00  0.0000000000000000e+00  0.0000000000000000e+00  0.0000000000000000e+00  0.0000000000000000e+00  0.0000000000000000e+00  0.0000000000000000e+00  0.0000000000000000e+00  0.0000000000000000e+00  0.0000000000000000e+00  0.0000000000000000e+00  0.0000000000000000e+00  0.0000000000000000e+00  0.0000000000000000e+00  0.0000000000000000e+00  0.0000000000000000e+00  0.0000000000000000e+00  0.0000000000000000e+00  0.0000000000000000e+00  0.0000000000000000e+00  0.0000000000000000e+00  0.0000000000000000e+00  0.0000000000000000e+00  0.0000000000000000e+00  0.0000000000000000e+00  0.0000000000000000e+00  0.0000000000000000e+00  0.0000000000000000e+00  0.0000000000000000e+00  0.0000000000000000e+00  0.0000000000000000e+00  0.0000000000000000e+00  0.0000000000000000e+00  0.0000000000000000e+00  0.0000000000000000e+00  0.0000000000000000e+00  0.0000000000000000e+00  0.0000000000000000e+00  0.0000000000000000e+00  0.0000000000000000e+00  0.0000000000000000e+00  0.0000000000000000e+00  0.0000000000000000e+00  0.0000000000000000e+00  0.0000000000000000e+00  0.0000000000000000e+00  0.0000000000000000e+00  0.0000000000000000e+00  0.0000000000000000e+00  0.0000000000000000e+00  0.0000000000000000e+00  0.0000000000000000e+00  0.0000000000000000e+00  0.0000000000000000e+00  0.0000000000000000e+00  0.0000000000000000e+00  0.0000000000000000e+00  0.0000000000000000e+00  0.0000000000000000e+00  0.0000000000000000e+00  0.0000000000000000e+00  0.0000000000000000e+00  0.0000000000000000e+00  0.0000000000000000e+00  0.0000000000000000e+00  0.0000000000000000e+00  0.0000000000000000e+00  0.0000000000000000e+00  0.0000000000000000e+00  0.0000000000000000e+00  0.0000000000000000e+00  0.0000000000000000e+00  0.0000000000000000e+00  0.0000000000000000e+00  0.0000000000000000e+00  0.0000000000000000e+00  0.0000000000000000e+00  0.0000000000000000e+00  0.0000000000000000e+00  0.0000000000000000e+00  0.0000000000000000e+00  0.0000000000000000e+00  0.0000000000000000e+00  0.0000000000000000e+00  0.0000000000000000e+00  0.0000000000000000e+00  0.0000000000000000e+00  0.0000000000000000e+00  0.0000000000000000e+00  0.0000000000000000e+00  0.0000000000000000e+00  0.0000000000000000e+00  0.0000000000000000e+00  0.0000000000000000e+00  0.0000000000000000e+00  0.0000000000000000e+00  0.0000000000000000e+00  0.0000000000000000e+00  0.0000000000000000e+00  0.0000000000000000e+00  0.0000000000000000e+00  0.0000000000000000e+00  0.0000000000000000e+00  0.0000000000000000e+00  0.0000000000000000e+00  0.0000000000000000e+00  0.0000000000000000e+00  0.0000000000000000e+00  0.0000000000000000e+00  0.0000000000000000e+00  0.0000000000000000e+00  0.0000000000000000e+00  0.0000000000000000e+00  0.0000000000000000e+00  0.0000000000000000e+00  0.0000000000000000e+00  0.0000000000000000e+00  0.0000000000000000e+00  0.0000000000000000e+00  0.0000000000000000e+00  0.0000000000000000e+00  0.0000000000000000e+00  0.0000000000000000e+00  0.0000000000000000e+00  0.0000000000000000e+00  0.0000000000000000e+00  0.0000000000000000e+00  0.0000000000000000e+00  0.0000000000000000e+00  0.0000000000000000e+00  0.0000000000000000e+00  0.0000000000000000e+00  0.0000000000000000e+00  0.0000000000000000e+00  0.0000000000000000e+00  0.0000000000000000e+00  0.0000000000000000e+00  0.0000000000000000e+00  0.0000000000000000e+00  0.0000000000000000e+00  0.0000000000000000e+00  0.0000000000000000e+00  0.0000000000000000e+00  0.0000000000000000e+00  0.0000000000000000e+00  0.0000000000000000e+00  0.0000000000000000e+00  0.0000000000000000e+00  0.0000000000000000e+00  0.0000000000000000e+00  0.0000000000000000e+00  0.0000000000000000e+00  0.0000000000000000e+00  0.0000000000000000e+00  0.0000000000000000e+00  0.0000000000000000e+00  0.0000000000000000e+00  0.0000000000000000e+00  0.0000000000000000e+00  0.0000000000000000e+00  0.0000000000000000e+00  0.0000000000000000e+00  0.0000000000000000e+00  0.0000000000000000e+00  0.0000000000000000e+00  0.0000000000000000e+00  0.0000000000000000e+00  0.0000000000000000e+00  0.0000000000000000e+00  0.0000000000000000e+00  0.0000000000000000e+00  0.0000000000000000e+00  0.0000000000000000e+00  0.0000000000000000e+00  0.0000000000000000e+00  0.0000000000000000e+00  0.0000000000000000e+00  0.0000000000000000e+00  0.0000000000000000e+00  0.0000000000000000e+00  0.0000000000000000e+00  0.0000000000000000e+00  0.0000000000000000e+00  0.0000000000000000e+00  0.0000000000000000e+00  0.0000000000000000e+00  0.0000000000000000e+00  0.0000000000000000e+00  0.0000000000000000e+00  0.0000000000000000e+00  0.0000000000000000e+00  0.0000000000000000e+00  0.0000000000000000e+00  0.0000000000000000e+00  0.0000000000000000e+00  0.0000000000000000e+00  0.0000000000000000e+00  0.0000000000000000e+00  0.0000000000000000e+00  0.0000000000000000e+00  -7.4306798611692626e-03  -1.0032134998351637e-01  -1.0028728741693604e-01  -1.0024732721147672e-01  -1.0035218211864418e-01  -1.0031762307233728e-01  -7.6350077714366957e-02  -3.8631833507264575e-02  -3.0885078439379821e-02  -1.6591101163492217e-02  -1.6568026474703998e-02  -6.1901329070462419e-02  7.3347734795819943e-04  7.4939337332333080e-04  -5.6919472265951919e-02  -5.3149270600348977e-02  1.4098405046370036e-02  1.3029734185553914e-02  1.4696526967124391e-02  1.5159477712862203e-02  1.7405288797417696e-02  1.7556937450156022e-02  1.6908609069290377e-02  -9.6650962252348954e-02  -9.6642831749892605e-02  -3.8776651223184286e-02  1.1239297733577586e-02  2.3907121982031179e-02  2.2695403763357953e-02  -1.0355008717254043e-01  2.3009500776178783e-02  -4.8598109562139627e-02  -2.7765487916050706e-02  -1.0199536165849581e-01  2.5036812747772547e-02  2.6409832828060469e-02  2.6498014638426354e-02  2.6539113260515970e-02  2.6546536651359455e-02  -8.4101298253918100e-02  -8.1200158159154018e-02  -7.7684888936171911e-02  -7.6289075683656948e-02  -2.1889088566057827e-02  2.6592758275757709e-02  2.6550332024047697e-02  2.6449293652803504e-02  2.6439914255946571e-02  -6.3790884073889970e-02  -6.7400763079814657e-02  -9.1185399663243020e-03  -8.5017173067362742e-02  -7.3122276008786291e-02  -1.0411118593665888e-01  2.5661931522893110e-02  -1.9627323597060112e-02  2.6508900051561628e-02  2.5708450310593996e-02  -7.1585523636037193e-02  2.5452419018257667e-02  2.5581840665416539e-02  -1.8721720336179491e-02  2.5329089342853658e-02  2.5780041462056719e-02  -7.1648695489837030e-02  -3.7844548191460041e-02  -9.4550729880498063e-02  -1.0413899652187293e-01  -9.3199148375833332e-02  -1.5834225085266686e-02  -7.0951287022677390e-02  -6.5294660983102423e-02  -4.2202085983803407e-02  -4.8796663666026252e-02  -4.9210926471350697e-02  -8.3125255595608488e-02  2.5131440249972919e-02  -1.0068612687320928e-01  -8.2376661152747263e-02  -2.3323170702532221e-02  2.4418115126773915e-02  -9.7867886563264672e-02  2.4073734086423524e-02  2.4255391281792826e-02  2.3687743616106743e-02  -1.4285694992994520e-02  2.3958876791632229e-02  2.3397347829225458e-02  2.3411569098688509e-02  -9.2394208045130724e-02  -1.0824456637151465e-02  2.3001691710551789e-02  -4.3479110418178438e-02  2.2841830359422274e-02  -1.1194737069695921e-02  -2.0644663997452666e-02  2.3998806221351785e-02  2.2509443027644828e-02  -6.8071736142143119e-03  2.2638065226862915e-03  -2.7338142399191363e-02  -6.8254922963039300e-03  2.2480014252673944e-02  -1.0422877647004698e-01  -8.8938982840172903e-02  -8.8951684295501945e-02  -1.0337153862325280e-01  2.2340473453582978e-03  -3.4432404684238980e-03  2.1024719283280056e-02  -1.0244164977755382e-01  2.0897353078800824e-02  2.1530174669824802e-02  -6.1579317740951892e-02  -5.6065990886516197e-02  4.2442669927976297e-03  2.0409667015197266e-02  2.2137672579361712e-02  2.1845781153156277e-02  -1.5740299412044870e-02  -1.0405381237507567e-01  2.0808692494188132e-02  -5.4481824550550527e-02  2.5572017577636479e-02  1.1398130428954423e-02  -1.5982320753885931e-02  2.1762461324755528e-02  1.9937958468551391e-02  1.3669294098804729e-02  1.2818768375698368e-02  -1.7539640712070769e-02  1.0662133368540430e-02  -4.2037421559087351e-02  -1.0398878444823342e-01  -6.4142813931723441e-02  2.0372438415490104e-03  2.1210481097218920e-02  -5.0600594855627880e-02  -9.1523128309745835e-02  -6.7446103211285621e-02  -1.1058576374052054e-02  -5.0295538106856746e-02  2.3679518985353518e-02  -1.0232997783149993e-01  -6.0864561126263948e-02  2.3470321101493441e-02  2.2387617533850861e-02  -5.9672216012433221e-02  -2.2350578127244038e-02  -3.2961501164006091e-02  1.8304254663426466e-02  -5.8587663935488206e-02  -9.2492815938686246e-02  1.9812346594245089e-02  1.9822429710765564e-02  2.5781491917517177e-02  1.7625416999228028e-02  2.2276267389786296e-02  1.8674206246935183e-02  1.7780255597606591e-02  1.7850817313429614e-02  2.3127956088744607e-02  -2.3531326903713443e-02  1.8776140267319018e-02  2.6159254902631667e-02  -9.7943371488018613e-02  1.9530861780166747e-02  2.2198108919147839e-02  1.7528321850608014e-02  2.3490636140249530e-02  -6.8328571686046835e-02  -1.0426778088147187e-02  2.3173126905033647e-02  -9.5059420328354752e-02  1.7012495291168359e-02  -1.0429984408378196e-01  1.6742059084945336e-02  1.6577626936291976e-02  1.7045850512835831e-02  -1.0260743073920627e-01  2.4480704950474795e-02  -9.2633366535985875e-02  -6.4224568789686257e-02  -3.5362048107064753e-02  1.8418148030079261e-02  -8.5303805324551563e-02  -3.1261818579870058e-02  -1.0223066100647291e-01  1.7272638402825460e-02  2.6561616071981098e-02  1.7590145570695801e-02  -2.2114132150997466e-02  1.6341145692881576e-02  1.7221262368024872e-02  -9.2123488937329245e-02  -7.5913222731699967e-02  1.8423870308117738e-02  2.5086591925293087e-02  -9.7543010293122442e-02  -2.3032081171692070e-02  -5.7018342170015592e-02  -6.9814349288145963e-02  -1.0101892642811856e-01  -2.8725326530253167e-02  -5.6659438807579184e-02  2.5238863520543539e-02  2.5387180532792718e-02  -4.2686606846957423e-02  2.4013626923801452e-02  2.5411534259796264e-02  1.5042293738831713e-02  -2.4569702914371598e-02  -1.0063824555933012e-02  1.6323921424691086e-02  1.6090914754977335e-02  2.2935152266164514e-02  -1.0337242396114418e-01  1.6982302809512975e-02  -3.2409077074817633e-02  -1.8842563095733844e-02  2.6022399019615897e-02  -8.5799908900711565e-03  -1.0084898319208814e-01  -3.9415739764325219e-02  -1.9944325632885299e-02  1.7073441458717184e-02  2.2908206127636808e-03  1.5161845249871969e-02  -1.9250198370284449e-02  1.5929904187380710e-02  2.0091105454308492e-02  1.7259723768137569e-02  1.5144123707052320e-02  2.6487467604415664e-02  1.5694812857879655e-02  -1.0433801779446289e-01  -5.8840785943221986e-02  2.6435277705191083e-02  2.6315012017312352e-02  -4.6917495749035254e-02  -6.6396495273837869e-02  -3.0125672072886623e-02  -4.5642965355609313e-02  2.0257886633256870e-02  -9.9353143768562080e-02  1.5154297615598061e-02  1.5157672422037258e-02  1.5042917067318079e-02  -9.0519574785414239e-02  -1.0308075390651586e-01  -8.0488099114840714e-02  -8.3496806132425258e-02  -5.4687775081027172e-02  -1.0106646313041649e-02  2.6578121621388642e-02  -9.7375058815522567e-02  2.2137193194561842e-02  -8.6894155472284768e-02  1.8889055212123421e-02  1.4722140059562013e-02  1.9069582237368245e-02  1.1537303312357243e-03  2.6331563095381150e-02  -6.5858076712219479e-02  -1.0358002175981881e-01  -9.9139941450565136e-02  2.6515874358871046e-02  2.1220054622751575e-02  1.9056570135740344e-02  -6.5955471658155143e-02  1.4137667540427921e-02  -9.1731029774643258e-02  -1.0399289683341172e-01  1.7603989242326451e-02  2.5273921736426754e-02  -1.7842766543314383e-04  -8.0228162234490072e-02  -7.2661017599541647e-02  -9.3514873203305093e-02  -8.5275402666682626e-02  -6.8097222985625983e-02  -3.7655044293121699e-02  -3.2357451885229836e-02  -2.1142026507783213e-02  -8.4007624562220881e-04  1.4505440253205106e-02  -6.7209473909554618e-02  1.5267910548057458e-02  2.6208457390313467e-02  -1.0085677674376979e-01  -3.3687570104825093e-02  -1.0414735986586370e-01  -2.8904537383743840e-02  -7.5896193371380288e-02  -2.7437921689383984e-02  1.3745575175435070e-02  -8.3589386051590553e-02  1.4185353734885432e-02  1.4373117257006719e-02  1.4824140134009524e-02  -2.0335561425388667e-02  -9.5335781486135598e-03  -7.3175690331429719e-02  -4.3115381026949090e-02  -8.0915617334020185e-03  -4.0538537802339236e-02  1.0001826743245328e-02  -6.1004990467192766e-02  -2.0527633600624203e-02  -3.0776284172217179e-02  -8.5467731762785049e-02  -2.2930227525223505e-02  -6.7669349657597452e-02  1.8672748824694423e-02  -3.2270890851888376e-02  -3.9072665842155081e-02  -6.8378560495451698e-02  9.7690590349552957e-03  -3.2429487726704500e-03  1.3835699529278600e-02  2.4514473091520765e-02  2.3089992832646480e-02  1.3327772531438992e-02  -8.4740847825388210e-02  1.3388089222046306e-02  1.3150338756627513e-02  2.6475564422865538e-02  -1.0114636439802699e-01  -9.1595135185510226e-02  -5.7031511512857347e-02  1.3310535483218908e-02  9.3882630647497377e-03  -2.2932518804213368e-02  -9.5573105094275912e-02  -8.1187209827837573e-02  1.5214344770248689e-02  -9.9313015465459134e-02  -8.4439864903900042e-02  -3.8485532057869198e-02  -8.4996816218928812e-03  2.5624492216695539e-02  -1.0021683746551797e-01  2.6173903165995282e-02  2.5643801698187384e-02  -8.8227919023606063e-03  1.3465784865096260e-02  2.5830723613132951e-02  2.3249048147338216e-02  1.3177896099314041e-02  -6.8514192854260050e-03  -9.4724502665746169e-03  1.2886377174562001e-02  2.6091686520110728e-02  1.2566098165771021e-02  2.6586865248221962e-02  2.6113532536686832e-02  -7.9956042033178534e-02  -8.9928213698734927e-03  2.5922502729882467e-02  -1.9927986068759663e-02  -2.6488297445608676e-02  1.8891735144916121e-02  1.3055497096887272e-02  -5.6100169699982050e-02  2.5835580168097824e-02  -7.4907553522558581e-02  2.5843307368507450e-02  2.6075483299277660e-03  -1.2093555970703459e-02  2.6206595784643745e-02  1.2440574036030065e-02  1.7506158272056930e-02  2.6037728982065800e-02  -9.1415126237468211e-02  -1.0418589310426464e-01  3.1582398244258073e-03  1.6981693845002130e-02  -1.7056524491856271e-02  -5.3264169826663127e-02  1.2471421949307010e-02  -9.1263193431884784e-02  1.2258416634438904e-02  2.6567588190532652e-02  -9.9269624817375599e-02  1.4084228667596057e-02  -3.7215767733974663e-02  1.1929976780672594e-02  2.6009232238457251e-02  1.2417632389048484e-02  -1.0162587593266917e-01  -6.6747740374190526e-02  -8.3745756339213655e-03  -6.8743621732728577e-02  1.2376305283284742e-02  2.6566050204431643e-02  -1.0145337480912518e-01  1.7247367552778722e-02  -4.7223822629618613e-02  1.6790378883979492e-02  1.2302556788185665e-02  1.2295203784073472e-02  -8.3757761357835331e-02  2.4726595977548057e-02  -1.0417753704873260e-01  1.5215291964244893e-02  -8.6137424484532682e-02  -6.4165342274618384e-02  1.1947184032649973e-02  2.6565500575732644e-02  2.6193316427450451e-02  2.5115524298990645e-02  2.5230602259215317e-02  -1.0412135569039106e-01  -9.2460862235342334e-02  -3.1871867076295399e-02  -9.4185983805942619e-02  2.6412508994269713e-02  -5.6376107771767082e-02  -1.0145234740841334e-01  2.6579406726882356e-02  1.1456428632024358e-02  1.7706715397137137e-02  -4.1925753310369407e-02  -1.8569292458321517e-02  1.3908979246282272e-02  -9.5525345034903411e-02  1.0666923983571842e-02  1.1501271141299278e-02  1.1352958496769006e-02  1.5185293991493248e-02  -1.9357826579652911e-02  2.6047037968249916e-02  1.8287633221682843e-02  2.5253247445461445e-02  2.6479932640726560e-02  2.6410730968170731e-02  -4.2003342577869633e-02  2.6323903092211488e-02  -1.0003732450434315e-01  -5.6472393923398839e-02  -7.7196793103661288e-02  -5.3779049077829280e-02  -9.3117445151355352e-02  -1.0249369883566331e-01  2.4958158976022566e-02  -1.0352213542007645e-01  2.1549548963419572e-02  -1.3205231635175519e-02  -3.0432383554610865e-02  -9.9412590517218069e-02  -8.7936616953949776e-02  -9.9467950933871271e-02  2.4585085984517134e-02  1.1525902967015181e-02  1.1730797701324807e-02  -5.2112417247883312e-02  -6.3355420393790699e-03  -9.5169847922985218e-02  -1.0039692692665907e-01  2.1817207027593134e-02  -5.7216319756597800e-02  1.1333814459595817e-02  -3.5716282948478548e-02  -7.3878723485361494e-02  -1.0216594921675305e-01  1.9080390431188820e-02  2.6455101303560945e-02  2.4823791126804134e-02  1.2294111255480147e-02  9.3116206035446115e-03  -6.7145032184462328e-02  2.3817554676688005e-02  -1.0258605340210147e-01  -9.4867919368764805e-02  2.6249045532074543e-02  -3.4916755382758395e-02  7.9840496099735456e-03  -9.5757607228876634e-02  3.5353030717759392e-04  -3.7136403871570037e-02  -2.0990806956844701e-02  1.9991177210567319e-02  1.0676614266799023e-02  2.6199474959286945e-02  1.0913475967358708e-02  2.3720400356328813e-02  1.8302549069468804e-02  -8.5881058126059256e-02  2.4893950107231694e-02  -6.1584951711218978e-02  2.0442179443193893e-02  -1.0333240422549242e-01  -6.8889106875098291e-02  -7.6966314519866880e-02  1.8038647850015126e-02  -1.0364401075994427e-01  1.6296522088967393e-02  1.0527423288556071e-02  1.2194740714923892e-02  -8.9521959098891463e-02  2.3406651287964101e-02  1.0980196038892536e-02  -8.7394695269803022e-02  -8.3192891189398349e-02  -3.2