<?xml version="1.0"?>
<VTKFile type="UnstructuredGrid"  version="0.1"  >
<UnstructuredGrid>
<Piece  NumberOfPoints="20054" NumberOfCells="39478">
<Points>
<DataArray  type="Float64"  NumberOfComponents="3"  format="ascii">1 0 0  0.9997998037428526 0.02000880895389431 0  0.9991992951284931 0.04000960653046352 0  0.9981987145960756 0.05999438456007805 0  0.9967984627705549 0.07995514128721501 0  0.9949991003022806 0.09988388457430118 0  0.9928013476425149 0.1197726351017051 0  0.9902060847549715 0.139613429562597 0  0.987214350763483 0.1593983238513969 0  0.9838273435359444 0.1791193962445356 0  0.9800464192046954 0.198768750572253 0  0.9758730916235354 0.2183385193801655 0  0.9713090317615876 0.237820867079336 0  0.9663560670342555 0.2572079930835849 0  0.9610161805715396 0.2764921349327862 0  0.9552915104240066 0.2956655714008991 0  0.9491843487067304 0.3147206255874884 0  0.9426971406815462 0.3336496679914983 0  0.9358324837779861 0.3524451195660473 0  0.9285931265532873 0.3710994547530225 0  0.9209819675918909 0.3896052044962556 0  0.9130020543448703 0.4079549592320781 0  0.9046565819097542 0.4261413718560547 0  0.8959488917512338 0.4441571606647087 0  0.8868824703632656 0.4619951122710622 0  0.8774609478731046 0.4796480844928215 0  0.8676880965878291 0.4971090092120542 0  0.8575678294839372 0.5143708952052096 0  0.8471041986406199 0.5314268309423539 0  0.8363013936173391 0.5482699873544935 0  0.8251637397763597 0.5648936205678837 0  0.8136956965509062 0.5812910746042258 0  0.8019018556596399 0.5974557840456699 0  0.7897869392681683 0.6133812766635599 0  0.777355798098326 0.6290611760098652 0  0.7646134094859813 0.6444892039702628 0  0.7515648753881492 0.6596591832778468 0  0.7382154203402046 0.6745650399864606 0  0.7245703893640189 0.6892008059026586 0  0.7106352458278521 0.7035606209753273 0  0.6964155692588616 0.7176387356420051 0  0.6819170531091018 0.7314295131309636 0  0.6671455024759069 0.7449274317181303 0  0.6521068317775753 0.7581270869379442 0  0.6368070623852795 0.7710231937472638 0  0.6212523202121545 0.7836105886414595 0  0.6054488332605282 0.795884231721841 0  0.5894029291282759 0.8078392087135958 0  0.5731210324752972 0.8194707329334278 0  0.5566096624511305 0.8307741472061095 0  0.5398754300847343 0.8417449257291802 0  0.5229250356374803 0.8523786758850435 0  0.5057652659204196 0.8626711399997378 0  0.4884029915768944 0.8726181970476778 0  0.4708451643315825 0.8822158643016828 0  0.45309881420708 0.8914602989276292 0  0.4351710467091336 0.9003477995230937 0  0.4170690399816468 0.9088748075993677 0  0.398800041932607 0.9170379090062476 0  0.3803713673320772 0.9248338352990368 0  0.3617903948834157 0.9322594650472057 0  0.3430645642688987 0.9393118250841893 0  0.3242013731709288 0.9459880916978206 0  0.3052083742700172 0.952285591760924 0  0.2860931722207478 0.9582018038016155 0  0.2668634206069304 0.963734359012881 0  0.2475268188771628 0.9688810422010291 0  0.2280911092620296 0.9736397926726377 0  0.2085640736741707 0.9780087050596407 0  0.1889535305924618 0.9819860300822225 0  0.1692673319315541 0.9855701752492174 0  0.1495133598980264 0.9887597054957302 0  0.1296995238344084 0.9915533437577263 0  0.1098337570523395 0.9939499714833577 0  0.08992401365612977 0.9959486290808237 0  0.06997826535799723 0.9975485163025836 0  0.05000449828625179 0.9987489925657699 0  0.03001070978771124 0.9995495772086734 0  0.01000490522562346 0.9999499496831961 0  -0.01000490522562333 0.9999499496831961 0  -0.03001070978771133 0.9995495772086734 0  -0.05000449828625144 0.9987489925657699 0  -0.06997826535799688 0.9975485163025836 0  -0.08992401365612987 0.9959486290808237 0  -0.1098337570523394 0.9939499714833577 0  -0.1296995238344082 0.9915533437577263 0  -0.1495133598980262 0.9887597054957303 0  -0.1692673319315537 0.9855701752492174 0  -0.1889535305924614 0.9819860300822226 0  -0.2085640736741705 0.9780087050596407 0  -0.2280911092620295 0.9736397926726377 0  -0.2475268188771627 0.9688810422010291 0  -0.2668634206069302 0.9637343590128811 0  -0.2860931722207475 0.9582018038016156 0  -0.3052083742700173 0.9522855917609239 0  -0.3242013731709289 0.9459880916978205 0  -0.3430645642688986 0.9393118250841894 0  -0.3617903948834154 0.9322594650472058 0  -0.380371367332077 0.924833835299037 0  -0.3988000419326071 0.9170379090062476 0  -0.4170690399816465 0.9088748075993678 0  -0.4351710467091335 0.9003477995230939 0  -0.4530988142070799 0.8914602989276292 0  -0.4708451643315824 0.8822158643016829 0  -0.4884029915768945 0.8726181970476778 0  -0.5057652659204197 0.8626711399997378 0  -0.5229250356374801 0.8523786758850437 0  -0.5398754300847342 0.8417449257291804 0  -0.5566096624511303 0.8307741472061098 0  -0.5731210324752971 0.8194707329334279 0  -0.589402929128276 0.8078392087135957 0  -0.6054488332605281 0.7958842317218411 0  -0.6212523202121542 0.7836105886414597 0  -0.6368070623852793 0.7710231937472639 0  -0.652106831777575 0.7581270869379444 0  -0.6671455024759069 0.7449274317181304 0  -0.6819170531091018 0.7314295131309636 0  -0.6964155692588616 0.7176387356420052 0  -0.7106352458278521 0.7035606209753273 0  -0.7245703893640187 0.6892008059026588 0  -0.7382154203402043 0.6745650399864608 0  -0.751564875388149 0.6596591832778469 0  -0.7646134094859813 0.6444892039702628 0  -0.7773557980983258 0.6290611760098654 0  -0.7897869392681683 0.6133812766635599 0  -0.8019018556596398 0.59745578404567 0  -0.8136956965509062 0.5812910746042258 0  -0.8251637397763595 0.5648936205678839 0  -0.836301393617339 0.5482699873544935 0  -0.8471041986406197 0.5314268309423542 0  -0.8575678294839372 0.5143708952052097 0  -0.8676880965878292 0.497109009212054 0  -0.8774609478731045 0.4796480844928216 0  -0.8868824703632656 0.4619951122710621 0  -0.8959488917512338 0.4441571606647088 0  -0.904656581909754 0.426141371856055 0  -0.9130020543448703 0.4079549592320783 0  -0.920981967591891 0.3896052044962555 0  -0.9285931265532872 0.3710994547530226 0  -0.9358324837779861 0.3524451195660473 0  -0.9426971406815462 0.3336496679914984 0  -0.9491843487067303 0.3147206255874888 0  -0.9552915104240065 0.2956655714008993 0  -0.9610161805715396 0.2764921349327862 0  -0.9663560670342555 0.2572079930835851 0  -0.9713090317615876 0.2378208670793361 0  -0.9758730916235353 0.2183385193801658 0  -0.9800464192046954 0.198768750572253 0  -0.9838273435359444 0.1791193962445354 0  -0.987214350763483 0.159398323851397 0  -0.9902060847549714 0.1396134295625972 0  -0.9928013476425149 0.1197726351017052 0  -0.9949991003022804 0.09988388457430147 0  -0.9967984627705549 0.07995514128721509 0  -0.9981987145960756 0.05999438456007793 0  -0.9991992951284931 0.04000960653046362 0  -0.9997998037428526 0.02000880895389464 0  -1 1.224646799147353e-16 0  -0.9997998037428526 -0.0200088089538944 0  -0.9991992951284931 -0.04000960653046338 0  -0.9981987145960756 -0.05999438456007812 0  -0.9967984627705549 -0.07995514128721484 0  -0.9949991003022806 -0.09988388457430078 0  -0.9928013476425149 -0.1197726351017049 0  -0.9902060847549715 -0.1396134295625965 0  -0.9872143507634831 -0.1593983238513963 0  -0.9838273435359444 -0.1791193962445356 0  -0.9800464192046953 -0.1987687505722532 0  -0.9758730916235354 -0.2183385193801655 0  -0.9713090317615876 -0.2378208670793363 0  -0.9663560670342556 -0.2572079930835848 0  -0.9610161805715396 -0.276492134932786 0  -0.9552915104240066 -0.2956655714008991 0  -0.9491843487067305 -0.3147206255874881 0  -0.9426971406815464 -0.3336496679914978 0  -0.9358324837779862 -0.3524451195660471 0  -0.9285931265532875 -0.371099454753022 0  -0.9209819675918909 -0.3896052044962557 0  -0.9130020543448704 -0.407954959232078 0  -0.9046565819097541 -0.4261413718560548 0  -0.8959488917512338 -0.4441571606647086 0  -0.8868824703632655 -0.4619951122710623 0  -0.8774609478731046 -0.4796480844928214 0  -0.8676880965878293 -0.4971090092120538 0  -0.8575678294839373 -0.5143708952052095 0  -0.84710419864062 -0.5314268309423537 0  -0.8363013936173395 -0.5482699873544929 0  -0.8251637397763596 -0.5648936205678838 0  -0.8136956965509061 -0.5812910746042259 0  -0.8019018556596399 -0.5974557840456699 0  -0.7897869392681682 -0.61338127666356 0  -0.777355798098326 -0.6290611760098652 0  -0.7646134094859816 -0.6444892039702625 0  -0.7515648753881492 -0.6596591832778468 0  -0.7382154203402048 -0.6745650399864603 0  -0.7245703893640192 -0.6892008059026583 0  -0.7106352458278522 -0.7035606209753272 0  -0.6964155692588621 -0.7176387356420046 0  -0.6819170531091017 -0.7314295131309637 0  -0.667145502475907 -0.7449274317181303 0  -0.6521068317775756 -0.758127086937944 0  -0.6368070623852792 -0.7710231937472641 0  -0.6212523202121544 -0.7836105886414596 0  -0.6054488332605283 -0.795884231721841 0  -0.5894029291282762 -0.8078392087135956 0  -0.5731210324752977 -0.8194707329334274 0  -0.5566096624511304 -0.8307741472061095 0  -0.5398754300847344 -0.8417449257291802 0  -0.5229250356374798 -0.8523786758850437 0  -0.5057652659204195 -0.8626711399997379 0  -0.4884029915768943 -0.872618197047678 0  -0.4708451643315825 -0.8822158643016828 0  -0.4530988142070805 -0.8914602989276289 0  -0.4351710467091333 -0.900347799523094 0  -0.4170690399816467 -0.9088748075993677 0  -0.3988000419326073 -0.9170379090062475 0  -0.3803713673320777 -0.9248338352990366 0  -0.3617903948834162 -0.9322594650472055 0  -0.3430645642688988 -0.9393118250841893 0  -0.3242013731709283 -0.9459880916978207 0  -0.3052083742700169 -0.9522855917609241 0  -0.2860931722207477 -0.9582018038016155 0  -0.2668634206069305 -0.963734359012881 0  -0.2475268188771631 -0.968881042201029 0  -0.2280911092620301 -0.9736397926726376 0  -0.2085640736741706 -0.9780087050596407 0  -0.1889535305924619 -0.9819860300822225 0  -0.1692673319315544 -0.9855701752492173 0  -0.1495133598980269 -0.9887597054957302 0  -0.1296995238344092 -0.9915533437577262 0  -0.1098337570523396 -0.9939499714833577 0  -0.08992401365612945 -0.9959486290808237 0  -0.06997826535799691 -0.9975485163025836 0  -0.05000449828625168 -0.9987489925657699 0  -0.030010709787
[...]
<PointData  Scalars="Displacement"> 
<DataArray  type="Float64"  Name="Displacement"  format="ascii">0.0000000000000000e+00  0.0000000000000000e+00  0.0000000000000000e+00  0.0000000000000000e+00  0.0000000000000000e+00  0.0000000000000000e+00  0.0000000000000000e+00  0.0000000000000000e+00  0.0000000000000000e+00  0.0000000000000000e+00  0.0000000000000000e+00  0.0000000000000000e+00  0.0000000000000000e+00  0.0000000000000000e+00  0.0000000000000000e+00  0.0000000000000000e+00  0.0000000000000000e+00  0.0000000000000000e+00  0.0000000000000000e+00  0.0000000000000000e+00  0.0000000000000000e+00  0.0000000000000000e+00  0.0000000000000000e+00  0.0000000000000000e+00  0.0000000000000000e+00  0.0000000000000000e+00  0.0000000000000000e+00  0.0000000000000000e+00  0.0000000000000000e+00  0.0000000000000000e+00  0.0000000000000000e+00  0.0000000000000000e+00  0.0000000000000000e+00  0.0000000000000000e+00  0.0000000000000000e+00  0.0000000000000000e+00  0.0000000000000000e+00  0.0000000000000000e+00  0.0000000000000000e+00  0.0000000000000000e+00  0.0000000000000000e+00  0.0000000000000000e+00  0.0000000000000000e+00  0.0000000000000000e+00  0.0000000000000000e+00  0.0000000000000000e+00  0.0000000000000000e+00  0.0000000000000000e+00  0.0000000000000000e+00  0.0000000000000000e+00  0.0000000000000000e+00  0.0000000000000000e+00  0.0000000000000000e+00  0.0000000000000000e+00  0.0000000000000000e+00  0.0000000000000000e+00  0.0000000000000000e+00  0.0000000000000000e+00  0.0000000000000000e+00  0.0000000000000000e+00  0.0000000000000000e+00  0.0000000000000000e+00  0.0000000000000000e+00  0.0000000000000000e+00  0.0000000000000000e+00  0.0000000000000000e+00  0.0000000000000000e+00  0.0000000000000000e+00  0.0000000000000000e+00  0.0000000000000000e+00  0.0000000000000000e+00  0.0000000000000000e+00  0.0000000000000000e+00  0.0000000000000000e+00  0.0000000000000000e+00  0.0000000000000000e+00  0.0000000000000000e+00  0.0000000000000000e+00  0.0000000000000000e+00  0.0000000000000000e+00  0.0000000000000000e+00  0.0000000000000000e+00  0.0000000000000000e+00  0.0000000000000000e+00  0.0000000000000000e+00  0.0000000000000000e+00  0.0000000000000000e+00  0.0000000000000000e+00  0.0000000000000000e+00  0.0000000000000000e+00  0.0000000000000000e+00  0.0000000000000000e+00  0.0000000000000000e+00  0.0000000000000000e+00  0.0000000000000000e+00  0.0000000000000000e+00  0.0000000000000000e+00  0.0000000000000000e+00  0.0000000000000000e+00  0.0000000000000000e+00  0.0000000000000000e+00  0.0000000000000000e+00  0.0000000000000000e+00  0.0000000000000000e+00  0.0000000000000000e+00  0.0000000000000000e+00  0.0000000000000000e+00  0.0000000000000000e+00  0.0000000000000000e+00  0.0000000000000000e+00  0.0000000000000000e+00  0.0000000000000000e+00  0.0000000000000000e+00  0.0000000000000000e+00  0.0000000000000000e+00  0.0000000000000000e+00  0.0000000000000000e+00  0.0000000000000000e+00  0.0000000000000000e+00  0.0000000000000000e+00  0.0000000000000000e+00  0.0000000000000000e+00  0.0000000000000000e+00  0.0000000000000000e+00  0.0000000000000000e+00  0.0000000000000000e+00  0.0000000000000000e+00  0.0000000000000000e+00  0.0000000000000000e+00  0.0000000000000000e+00  0.0000000000000000e+00  0.0000000000000000e+00  0.0000000000000000e+00  0.0000000000000000e+00  0.0000000000000000e+00  0.0000000000000000e+00  0.0000000000000000e+00  0.0000000000000000e+00  0.0000000000000000e+00  0.0000000000000000e+00  0.0000000000000000e+00  0.0000000000000000e+00  0.0000000000000000e+00  0.0000000000000000e+00  0.0000000000000000e+00  0.0000000000000000e+00  0.0000000000000000e+00  0.0000000000000000e+00  0.0000000000000000e+00  0.0000000000000000e+00  0.0000000000000000e+00  0.0000000000000000e+00  0.0000000000000000e+00  0.0000000000000000e+00  0.0000000000000000e+00  0.0000000000000000e+00  0.0000000000000000e+00  0.0000000000000000e+00  0.0000000000000000e+00  0.0000000000000000e+00  0.0000000000000000e+00  0.0000000000000000e+00  0.0000000000000000e+00  0.0000000000000000e+00  0.0000000000000000e+00  0.0000000000000000e+00  0.0000000000000000e+00  0.0000000000000000e+00  0.0000000000000000e+00  0.0000000000000000e+00  0.0000000000000000e+00  0.0000000000000000e+00  0.0000000000000000e+00  0.0000000000000000e+00  0.0000000000000000e+00  0.0000000000000000e+00  0.0000000000000000e+00  0.0000000000000000e+00  0.0000000000000000e+00  0.0000000000000000e+00  0.0000000000000000e+00  0.0000000000000000e+00  0.0000000000000000e+00  0.0000000000000000e+00  0.0000000000000000e+00  0.0000000000000000e+00  0.0000000000000000e+00  0.0000000000000000e+00  0.0000000000000000e+00  0.0000000000000000e+00  0.0000000000000000e+00  0.0000000000000000e+00  0.0000000000000000e+00  0.0000000000000000e+00  0.0000000000000000e+00  0.0000000000000000e+00  0.0000000000000000e+00  0.0000000000000000e+00  0.0000000000000000e+00  0.0000000000000000e+00  0.0000000000000000e+00  0.0000000000000000e+00  0.0000000000000000e+00  0.0000000000000000e+00  0.0000000000000000e+00  0.0000000000000000e+00  0.0000000000000000e+00  0.0000000000000000e+00  0.0000000000000000e+00  0.0000000000000000e+00  0.0000000000000000e+00  0.0000000000000000e+00  0.0000000000000000e+00  0.0000000000000000e+00  0.0000000000000000e+00  0.0000000000000000e+00  0.0000000000000000e+00  0.0000000000000000e+00  0.0000000000000000e+00  0.0000000000000000e+00  0.0000000000000000e+00  0.0000000000000000e+00  0.0000000000000000e+00  0.0000000000000000e+00  0.0000000000000000e+00  0.0000000000000000e+00  0.0000000000000000e+00  0.0000000000000000e+00  0.0000000000000000e+00  0.0000000000000000e+00  0.0000000000000000e+00  0.0000000000000000e+00  0.0000000000000000e+00  0.0000000000000000e+00  0.0000000000000000e+00  0.0000000000000000e+00  0.0000000000000000e+00  0.0000000000000000e+00  0.0000000000000000e+00  0.0000000000000000e+00  0.0000000000000000e+00  0.0000000000000000e+00  0.0000000000000000e+00  0.0000000000000000e+00  0.0000000000000000e+00  0.0000000000000000e+00  0.0000000000000000e+00  0.0000000000000000e+00  0.0000000000000000e+00  0.0000000000000000e+00  0.0000000000000000e+00  0.0000000000000000e+00  0.0000000000000000e+00  0.0000000000000000e+00  0.0000000000000000e+00  0.0000000000000000e+00  0.0000000000000000e+00  0.0000000000000000e+00  0.0000000000000000e+00  0.0000000000000000e+00  0.0000000000000000e+00  0.0000000000000000e+00  0.0000000000000000e+00  0.0000000000000000e+00  0.0000000000000000e+00  0.0000000000000000e+00  0.0000000000000000e+00  0.0000000000000000e+00  0.0000000000000000e+00  0.0000000000000000e+00  0.0000000000000000e+00  0.0000000000000000e+00  0.0000000000000000e+00  0.0000000000000000e+00  0.0000000000000000e+00  0.0000000000000000e+00  0.0000000000000000e+00  0.0000000000000000e+00  0.0000000000000000e+00  0.0000000000000000e+00  0.0000000000000000e+00  0.0000000000000000e+00  0.0000000000000000e+00  0.0000000000000000e+00  0.0000000000000000e+00  0.0000000000000000e+00  0.0000000000000000e+00  0.0000000000000000e+00  0.0000000000000000e+00  0.0000000000000000e+00  0.0000000000000000e+00  0.0000000000000000e+00  0.0000000000000000e+00  0.0000000000000000e+00  0.0000000000000000e+00  0.0000000000000000e+00  0.0000000000000000e+00  0.0000000000000000e+00  0.0000000000000000e+00  0.0000000000000000e+00  0.0000000000000000e+00  0.0000000000000000e+00  0.0000000000000000e+00  0.0000000000000000e+00  0.0000000000000000e+00  0.0000000000000000e+00  0.0000000000000000e+00  0.0000000000000000e+00  0.0000000000000000e+00  0.0000000000000000e+00  0.0000000000000000e+00  0.0000000000000000e+00  0.0000000000000000e+00  0.0000000000000000e+00  4.7959764378928474e-02  -1.8246986224571743e-01  -1.8161696025410931e-01  -1.8158857084644281e-01  -1.8197428508869029e-01  -1.8171780483623018e-01  -1.5286651320453812e-01  -6.9747246287921297e-02  -5.2116797070865403e-02  -2.3022894368210371e-02  -2.2889653699680917e-02  8.9952466513057050e-02  1.3113133722043326e-03  1.1594829790580311e-03  1.0789948162275623e-01  1.2034371641813592e-01  3.1693429033607607e-03  3.8783007324974870e-03  3.2132018306505351e-03  2.4686390309051694e-03  1.3964804419290809e-03  1.6449842414946595e-03  1.4791513412240114e-03  -8.5686015603033239e-02  -8.6330560565082898e-02  1.3670376183922031e-01  4.3877406098071937e-03  -9.8588900680085956e-04  -1.1429691730626417e-03  -1.7279345416355474e-01  -8.5068338224700160e-04  1.3223329820188418e-01  1.0570734174404499e-01  -1.7932997601743667e-01  -5.1452715523893117e-04  1.4152088439457894e-03  1.2633003212969150e-03  1.4447292118214417e-03  1.4863954843732548e-03  -1.6663491614269418e-01  -1.6174950483497724e-01  -1.5533985150764593e-01  -1.5249152294357463e-01  8.4463091298459886e-02  9.4684442879058276e-04  1.2173873987398689e-03  1.0681319727854142e-03  5.5454199586691300e-04  -1.2642312058189922e-01  -1.3435412783460268e-01  -1.0319882597072338e-02  -1.6808391645049850e-01  -1.4648649158234545e-01  -1.6832146047749544e-01  2.2815507692813934e-05  7.7594832698982555e-02  8.2272837293184589e-04  -9.9623456550511187e-05  5.0116745505449721e-02  -7.3632716427851400e-05  2.2934972761623278e-04  -2.7071525059948046e-02  -3.8447925061559123e-04  1.0101948076750020e-04  4.9621440846117630e-02  1.3662720615870036e-01  -7.2210192797333289e-02  -1.6840900697205638e-01  -6.4548541314747132e-02  6.5944098565497544e-02  5.3172237400710171e-02  -1.2994824534778568e-01  -7.8214060653996831e-02  -9.3103950532715446e-02  -9.3879049294943270e-02  -6.4647371830651749e-03  -1.5742045779769433e-04  -1.1537262270204218e-01  -2.0030521064978882e-03  -3.6419939036458279e-02  -4.8586270322109685e-04  -9.4109090670211046e-02  4.4782936953483013e-05  -2.8243150278122050e-04  3.5942477359620408e-04  6.2682315128090263e-02  -3.5577685193761608e-04  5.8592481711353789e-04  6.6469203128282346e-05  -5.9801159444427758e-02  -1.3009260940614709e-02  4.4069075764451314e-04  -8.1011550008077540e-02  8.4632957792468548e-04  -1.3886760521998328e-02  8.0262802632911356e-02  -8.5121080032621860e-05  3.7648809719990683e-04  -6.9664771539587923e-03  2.3921771430443516e-03  -4.4479894553876076e-02  -7.1169041403109645e-03  4.7557385839386805e-04  -1.5709047180199751e-01  -1.7368999309518887e-01  -1.7391631098605581e-01  -1.4136372439875294e-01  2.3337971968655077e-03  -2.6966009839135326e-03  9.0431509360716666e-04  -1.3126312020022324e-01  5.5357666177019145e-04  8.3451539266744834e-04  -1.2188466495770256e-01  -1.0953845643696011e-01  3.2754458145363005e-03  6.5327329379936874e-04  6.5314857981300207e-04  6.4104469965090667e-04  6.6039302865305613e-02  -1.5253743780094403e-01  -6.2504277964736720e-04  1.1673084122567508e-01  -2.1109707706142618e-04  3.9232666095094237e-03  -2.1861340903638258e-02  3.9530934519783618e-04  5.4866951544483807e-04  3.7935843184548979e-03  3.7371671885377848e-03  -2.4606036703909439e-02  4.1267895223686046e-03  -7.7700994506096493e-02  -1.7003787831427108e-01  -1.2748021119654807e-01  2.2629225193039697e-03  7.2994199063099478e-04  1.2854501170667271e-01  -5.4730056696041064e-02  6.7502700857430542e-02  5.5027023728765979e-02  1.2920764174492591e-01  -1.0272799466910446e-03  -1.3006860650790641e-01  -1.2048871415131883e-01  -9.4074576149113349e-04  -7.2295148069484037e-04  9.8192266901482209e-02  8.5759897733284268e-02  -5.7062563866675804e-02  -5.3974674618997257e-05  -1.1493642071990541e-01  -6.0025697455416999e-02  3.9695090966949113e-04  -7.4595478954716206e-05  1.9029193259340470e-05  1.4334339487861444e-04  -1.1064865043131885e-03  1.0413748650640315e-04  -2.1382146869758836e-04  -2.0329700250057690e-06  -7.2348250227986962e-04  -3.6695555787873015e-02  -1.3774469165563367e-04  8.6853936027139007e-04  -1.8246369453220040e-01  5.5202341984193145e-05  6.1824993119631436e-04  -1.4692395131081932e-04  -7.7715303268693957e-04  -1.3612115272589409e-01  5.4394438581855047e-02  -1.1340576554351293e-03  -7.5750555739080710e-02  -4.0707600011437891e-04  -1.6423095808726168e-01  1.1094843821889652e-04  2.0403553060915390e-03  4.8930146581336310e-05  -1.7755464818125846e-01  -4.5182430654688860e-04  -1.7862589259331879e-01  -1.2778633690722632e-01  1.3048037569062212e-01  2.5387275468951323e-04  -1.6812472129623030e-01  -5.3230430730429594e-02  -1.7850661233112886e-01  -1.1083092057926499e-04  1.1671064704646928e-03  -9.7493847842797620e-05  8.5633524336979197e-02  -4.2670452432870651e-04  -2.0664477730365422e-04  -1.7815846670630017e-01  3.0681298715010748e-02  7.4031065350415465e-04  1.5884045696803613e-04  -1.8209631227042974e-01  -3.5404647960727217e-02  -1.1182729226853022e-01  -1.3956200231553820e-01  -1.8110421512797520e-01  -4.7604901423899691e-02  -1.1063255943287181e-01  -1.6683009799083824e-04  1.6281619359627278e-05  1.3877546320140571e-01  1.1784607041468251e-05  3.8714030561005458e-04  2.5593000339890122e-03  9.3856541610281161e-02  5.3230071494088205e-02  -9.5524860758867546e-05  7.0103311697208886e-05  -1.1379228833269274e-03  -1.7491659017060129e-01  -1.4893963190533254e-04  -5.5718728990682899e-02  -2.7547421439665622e-02  5.9399466522316283e-04  -9.3922596527754674e-03  -1.1651519854570275e-01  -7.1292237135845718e-02  -2.9678250672527318e-02  -4.3328689727570877e-04  2.3790109892625174e-03  -2.0144797583429813e-04  -2.8194355608891372e-02  -1.1209953689662636e-04  7.1654823253842733e-04  -6.1573908440248863e-05  -4.9960472799686835e-05  7.6893106787516929e-04  -7.1463940342256525e-05  -1.6396491864506521e-01  -1.1554737119250215e-01  1.3110029866648344e-03  8.3175493402509162e-04  1.3555296910507897e-01  7.1806846145493930e-02  -5.0679343871336935e-02  -8.5701528677708361e-02  5.5892582589895648e-04  -1.8235087752187051e-01  -2.3417785244733561e-04  -8.6390019242648685e-05  -5.7382101685871854e-05  -4.8551946997083817e-02  -1.7638805020128981e-01  -1.6006833655452415e-01  -1.6580774502083961e-01  1.1581153040472952e-01  5.3472117262409427e-02  1.2925449838489395e-03  -9.0879946451672411e-02  -1.0604338267280050e-03  -1.7116606809630963e-01  3.8392509554506841e-04  2.2223917926448861e-04  3.1957022629591720e-04  1.2789407139532215e-03  1.1000047432212809e-03  -1.3105871053782797e-01  -1.7344882142139439e-01  -1.0334175299227383e-01  1.1512464149013616e-03  5.4490249149754698e-04  4.1347947866087056e-04  -1.3141580459986565e-01  2.2478892595716949e-04  -5.5423489937891195e-02  -1.6931726502148467e-01  1.6183896377921819e-03  -9.6173213786256631e-06  3.7977434670046021e-04  9.5246209579271206e-03  4.5370903387687227e-02  -6.6090098782486770e-02  -1.7287295017175786e-02  6.5674145318598359e-02  1.3506253304432553e-01  1.2159528002507057e-01  -3.1863460504153805e-02  -3.6211796989786182e-05  3.5622115471381933e-03  6.8798775686950184e-02  2.3207056871175796e-04  6.3257944939926723e-04  -1.1626564202579966e-01  1.2629893539231146e-01  -1.6852701082235821e-01  -4.8121165310547338e-02  -1.5176083735217211e-01  1.0435830001862062e-01  1.6533676759690117e-04  -1.6593933085400667e-01  2.7571793406742587e-04  1.9490528970194122e-04  2.1140058411769249e-04  7.9367701677240415e-02  5.2549080976998119e-02  4.3262549370636644e-02  1.3866267514759578e-01  -8.9556416660954916e-03  -7.3789381205808427e-02  4.1649994109461538e-03  -1.2039632211739826e-01  -3.0412162279742274e-02  -5.2133546033679840e-02  -1.6899881968160196e-01  -3.5498174587339011e-02  6.6183808412900599e-02  5.4437885312228905e-04  1.2155943173840360e-01  1.3682053022150234e-01  -1.3650637752693878e-01  4.7352240536264233e-03  -2.9119505163254719e-03  -2.7951930646516943e-05  -6.1903092312403393e-04  -9.5063411750172884e-04  2.7642507033986990e-04  -1.5155222411593913e-02  3.8790694403632360e-04  4.3432361170282394e-04  6.3476425380942303e-04  -1.1913385787658898e-01  -5.4626399650500722e-02  1.0767952775697526e-01  4.8837610770787886e-04  4.5005875666961773e-03  -3.5412803342464411e-02  -1.8097788945348137e-01  3.6128919397361032e-03  2.6357460898613462e-03  -1.8266038688067768e-01  -1.3201062501828635e-02  1.3617360497625375e-01  -9.7196579542872235e-03  -2.9605993050350049e-05  -1.8200974670948522e-01  3.5951657104864922e-04  -3.8447726934547608e-04  -9.9266088488598140e-03  1.6960389009066995e-04  6.9793259554636316e-04  -8.0825161393437476e-04  2.1450695075233894e-04  -7.0138934207307638e-03  -1.0738947908828695e-02  3.9788166427953312e-04  3.3983633554827215e-04  4.7516810328814658e-04  1.1796043507649122e-03  6.1376360304871266e-04  -1.5987581606764906e-01  5.1169929115031265e-02  3.6682299244607665e-04  7.8105192059605782e-02  1.0109626221865609e-01  5.6714469334198181e-04  2.4791199099914165e-04  -1.0987386966638137e-01  1.3132608210292531e-04  3.5253342812226515e-02  4.3004940775518769e-04  2.2765232200275265e-03  5.7573111287472729e-02  8.2038650743468616e-04  4.0429054613027243e-04  -3.8006411966455984e-04  1.0028307053937149e-03  -5.3745211485628441e-02  -1.5475048002000452e-01  3.0684629356085677e-03  7.9636741262914299e-05  6.9462298026878880e-02  -1.0303837422948947e-01  4.0289506628125046e-04  -1.7652060290164692e-01  4.4284767081507846e-04  1.2943158700576159e-03  -1.8249269576411012e-01  2.3942939258515727e-04  1.3360429445110081e-01  4.4194008210249992e-04  6.2510121849479699e-04  6.3122604948634951e-05  -1.2307704818759825e-01  -1.3311057003332530e-01  -9.1632675004600494e-03  -1.3721397196349552e-01  3.7407435147482663e-04  1.0535856704911666e-03  -1.2168717937012238e-01  -9.1797521928544223e-05  -8.9675718944299515e-02  1.7048013718978269e-03  1.7995494875970298e-04  1.7705986851473515e-04  -1.6637133819157704e-01  3.5580699870136347e-05  -1.6867614776926068e-01  2.6246134946319322e-03  -1.6997591537181275e-01  -1.2776512683389663e-01  2.4615490616647210e-04  1.3978185560987425e-03  1.3819597746045804e-03  -1.7906205170279657e-04  -1.0258743889497457e-05  -1.5501160050874402e-01  -6.0099856540969651e-02  1.2028549338424928e-01  -7.0568227210311779e-02  9.8154531863580601e-04  1.0992285115045211e-01  -1.8037065726599838e-01  1.0591202577535071e-03  5.5814064626758886e-04  8.3103961877895402e-05  -7.7396042020599617e-02  -2.6832819296803662e-02  3.3314792210597591e-03  -7.8862747160306210e-02  4.2735109230717843e-03  5.6003337595297026e-05  4.0638399721822658e-04  -1.0450720159599061e-04  -2.8367072023323271e-02  2.3060670561059372e-04  9.2385220221552283e-04  -4.6661823880613900e-04  1.0500389225604411e-03  5.9116013276210683e-04  -7.7148654883818113e-02  8.5429346097247558e-04  -1.8214778002495757e-01  -1.1007564467685205e-01  -1.5423769116658748e-01  -1.0449018428729152e-01  -1.7897442704996108e-01  -1.3134699343361420e-01  7.7175335194451357e-05  -1.4375812806545341e-01  -9.4507269550111030e-04  6.0232097529589190e-02  -5.1003085739884671e-02  -1.8248354234705327e-01  -1.7282977554136472e-01  -1.0561105676088692e-01  1.5230225790986596e-04  6.1059908505279648e-04  3.8400376704352885e-04  1.2382810084806295e-01  -6.5808560948954617e-03  -1.8050207827748721e-01  -1.8159277850540989e-01  8.9816756930846372e-04  -1.1202784731584213e-01  2.5707265240350417e-04  1.3139542036897456e-01  3.9867382517380062e-02  -1.7873344571455088e-01  4.0373718700758464e-04  9.0706158274711838e-04  -2.5597560613751949e-04  3.9375520402519272e-03  4.5965949697299620e-03  -1.3384032750004585e-01  8.2289086787669117e-05  -1.7762250866881951e-01  -1.8059830174123317e-01  7.8402597652819320e-04  1.2932130600051980e-01  4.2972245947535013e-03  -1.8148909116145293e-01  6.7980680874115632e-04  -6.6718747437656600e-02  -3.1375394307602056e-02  -1.5378447668925869e-04  4.5245529787700338e-04  1.8750873409116231e-04  5.5952989079830395e-04  1.3792277082422629e-04  6.8363621227684985e-05  -2.1358371668728282e-02  -5.2553491089518743e-04  -1.2155633467477465e-01  -2.5360333307307615e-04  -1.4068729565823385e-01  -1.3757814759290571e-01  2.5282412298857276e-02  -1.8809496287725328e-04  -1.4482045838536042e-01  -2.5649369310154686e-04  4.7267225385470049e-04  1.1075935016410713e-04  -1.7456083779872444e-01  7.6827527572778963e-05  4.1012021821499478e-04  -1.7176635532770709e-01  -1.6513380176110881e-01  -5.564