<?xml version="1.0"?>
<VTKFile type="UnstructuredGrid"  version="0.1"  >
<UnstructuredGrid>
<Piece  NumberOfPoints="20054" NumberOfCells="39478">
<Points>
<DataArray  type="Float64"  NumberOfComponents="3"  format="ascii">1 0 0  0.9997998037428526 0.02000880895389431 0  0.9991992951284931 0.04000960653046352 0  0.9981987145960756 0.05999438456007805 0  0.9967984627705549 0.07995514128721501 0  0.9949991003022806 0.09988388457430118 0  0.9928013476425149 0.1197726351017051 0  0.9902060847549715 0.139613429562597 0  0.987214350763483 0.1593983238513969 0  0.9838273435359444 0.1791193962445356 0  0.9800464192046954 0.198768750572253 0  0.9758730916235354 0.2183385193801655 0  0.9713090317615876 0.237820867079336 0  0.9663560670342555 0.2572079930835849 0  0.9610161805715396 0.2764921349327862 0  0.9552915104240066 0.2956655714008991 0  0.9491843487067304 0.3147206255874884 0  0.9426971406815462 0.3336496679914983 0  0.9358324837779861 0.3524451195660473 0  0.9285931265532873 0.3710994547530225 0  0.9209819675918909 0.3896052044962556 0  0.9130020543448703 0.4079549592320781 0  0.9046565819097542 0.4261413718560547 0  0.8959488917512338 0.4441571606647087 0  0.8868824703632656 0.4619951122710622 0  0.8774609478731046 0.4796480844928215 0  0.8676880965878291 0.4971090092120542 0  0.8575678294839372 0.5143708952052096 0  0.8471041986406199 0.5314268309423539 0  0.8363013936173391 0.5482699873544935 0  0.8251637397763597 0.5648936205678837 0  0.8136956965509062 0.5812910746042258 0  0.8019018556596399 0.5974557840456699 0  0.7897869392681683 0.6133812766635599 0  0.777355798098326 0.6290611760098652 0  0.7646134094859813 0.6444892039702628 0  0.7515648753881492 0.6596591832778468 0  0.7382154203402046 0.6745650399864606 0  0.7245703893640189 0.6892008059026586 0  0.7106352458278521 0.7035606209753273 0  0.6964155692588616 0.7176387356420051 0  0.6819170531091018 0.7314295131309636 0  0.6671455024759069 0.7449274317181303 0  0.6521068317775753 0.7581270869379442 0  0.6368070623852795 0.7710231937472638 0  0.6212523202121545 0.7836105886414595 0  0.6054488332605282 0.795884231721841 0  0.5894029291282759 0.8078392087135958 0  0.5731210324752972 0.8194707329334278 0  0.5566096624511305 0.8307741472061095 0  0.5398754300847343 0.8417449257291802 0  0.5229250356374803 0.8523786758850435 0  0.5057652659204196 0.8626711399997378 0  0.4884029915768944 0.8726181970476778 0  0.4708451643315825 0.8822158643016828 0  0.45309881420708 0.8914602989276292 0  0.4351710467091336 0.9003477995230937 0  0.4170690399816468 0.9088748075993677 0  0.398800041932607 0.9170379090062476 0  0.3803713673320772 0.9248338352990368 0  0.3617903948834157 0.9322594650472057 0  0.3430645642688987 0.9393118250841893 0  0.3242013731709288 0.9459880916978206 0  0.3052083742700172 0.952285591760924 0  0.2860931722207478 0.9582018038016155 0  0.2668634206069304 0.963734359012881 0  0.2475268188771628 0.9688810422010291 0  0.2280911092620296 0.9736397926726377 0  0.2085640736741707 0.9780087050596407 0  0.1889535305924618 0.9819860300822225 0  0.1692673319315541 0.9855701752492174 0  0.1495133598980264 0.9887597054957302 0  0.1296995238344084 0.9915533437577263 0  0.1098337570523395 0.9939499714833577 0  0.08992401365612977 0.9959486290808237 0  0.06997826535799723 0.9975485163025836 0  0.05000449828625179 0.9987489925657699 0  0.03001070978771124 0.9995495772086734 0  0.01000490522562346 0.9999499496831961 0  -0.01000490522562333 0.9999499496831961 0  -0.03001070978771133 0.9995495772086734 0  -0.05000449828625144 0.9987489925657699 0  -0.06997826535799688 0.9975485163025836 0  -0.08992401365612987 0.9959486290808237 0  -0.1098337570523394 0.9939499714833577 0  -0.1296995238344082 0.9915533437577263 0  -0.1495133598980262 0.9887597054957303 0  -0.1692673319315537 0.9855701752492174 0  -0.1889535305924614 0.9819860300822226 0  -0.2085640736741705 0.9780087050596407 0  -0.2280911092620295 0.9736397926726377 0  -0.2475268188771627 0.9688810422010291 0  -0.2668634206069302 0.9637343590128811 0  -0.2860931722207475 0.9582018038016156 0  -0.3052083742700173 0.9522855917609239 0  -0.3242013731709289 0.9459880916978205 0  -0.3430645642688986 0.9393118250841894 0  -0.3617903948834154 0.9322594650472058 0  -0.380371367332077 0.924833835299037 0  -0.3988000419326071 0.9170379090062476 0  -0.4170690399816465 0.9088748075993678 0  -0.4351710467091335 0.9003477995230939 0  -0.4530988142070799 0.8914602989276292 0  -0.4708451643315824 0.8822158643016829 0  -0.4884029915768945 0.8726181970476778 0  -0.5057652659204197 0.8626711399997378 0  -0.5229250356374801 0.8523786758850437 0  -0.5398754300847342 0.8417449257291804 0  -0.5566096624511303 0.8307741472061098 0  -0.5731210324752971 0.8194707329334279 0  -0.589402929128276 0.8078392087135957 0  -0.6054488332605281 0.7958842317218411 0  -0.6212523202121542 0.7836105886414597 0  -0.6368070623852793 0.7710231937472639 0  -0.652106831777575 0.7581270869379444 0  -0.6671455024759069 0.7449274317181304 0  -0.6819170531091018 0.7314295131309636 0  -0.6964155692588616 0.7176387356420052 0  -0.7106352458278521 0.7035606209753273 0  -0.7245703893640187 0.6892008059026588 0  -0.7382154203402043 0.6745650399864608 0  -0.751564875388149 0.6596591832778469 0  -0.7646134094859813 0.6444892039702628 0  -0.7773557980983258 0.6290611760098654 0  -0.7897869392681683 0.6133812766635599 0  -0.8019018556596398 0.59745578404567 0  -0.8136956965509062 0.5812910746042258 0  -0.8251637397763595 0.5648936205678839 0  -0.836301393617339 0.5482699873544935 0  -0.8471041986406197 0.5314268309423542 0  -0.8575678294839372 0.5143708952052097 0  -0.8676880965878292 0.497109009212054 0  -0.8774609478731045 0.4796480844928216 0  -0.8868824703632656 0.4619951122710621 0  -0.8959488917512338 0.4441571606647088 0  -0.904656581909754 0.426141371856055 0  -0.9130020543448703 0.4079549592320783 0  -0.920981967591891 0.3896052044962555 0  -0.9285931265532872 0.3710994547530226 0  -0.9358324837779861 0.3524451195660473 0  -0.9426971406815462 0.3336496679914984 0  -0.9491843487067303 0.3147206255874888 0  -0.9552915104240065 0.2956655714008993 0  -0.9610161805715396 0.2764921349327862 0  -0.9663560670342555 0.2572079930835851 0  -0.9713090317615876 0.2378208670793361 0  -0.9758730916235353 0.2183385193801658 0  -0.9800464192046954 0.198768750572253 0  -0.9838273435359444 0.1791193962445354 0  -0.987214350763483 0.159398323851397 0  -0.9902060847549714 0.1396134295625972 0  -0.9928013476425149 0.1197726351017052 0  -0.9949991003022804 0.09988388457430147 0  -0.9967984627705549 0.07995514128721509 0  -0.9981987145960756 0.05999438456007793 0  -0.9991992951284931 0.04000960653046362 0  -0.9997998037428526 0.02000880895389464 0  -1 1.224646799147353e-16 0  -0.9997998037428526 -0.0200088089538944 0  -0.9991992951284931 -0.04000960653046338 0  -0.9981987145960756 -0.05999438456007812 0  -0.9967984627705549 -0.07995514128721484 0  -0.9949991003022806 -0.09988388457430078 0  -0.9928013476425149 -0.1197726351017049 0  -0.9902060847549715 -0.1396134295625965 0  -0.9872143507634831 -0.1593983238513963 0  -0.9838273435359444 -0.1791193962445356 0  -0.9800464192046953 -0.1987687505722532 0  -0.9758730916235354 -0.2183385193801655 0  -0.9713090317615876 -0.2378208670793363 0  -0.9663560670342556 -0.2572079930835848 0  -0.9610161805715396 -0.276492134932786 0  -0.9552915104240066 -0.2956655714008991 0  -0.9491843487067305 -0.3147206255874881 0  -0.9426971406815464 -0.3336496679914978 0  -0.9358324837779862 -0.3524451195660471 0  -0.9285931265532875 -0.371099454753022 0  -0.9209819675918909 -0.3896052044962557 0  -0.9130020543448704 -0.407954959232078 0  -0.9046565819097541 -0.4261413718560548 0  -0.8959488917512338 -0.4441571606647086 0  -0.8868824703632655 -0.4619951122710623 0  -0.8774609478731046 -0.4796480844928214 0  -0.8676880965878293 -0.4971090092120538 0  -0.8575678294839373 -0.5143708952052095 0  -0.84710419864062 -0.5314268309423537 0  -0.8363013936173395 -0.5482699873544929 0  -0.8251637397763596 -0.5648936205678838 0  -0.8136956965509061 -0.5812910746042259 0  -0.8019018556596399 -0.5974557840456699 0  -0.7897869392681682 -0.61338127666356 0  -0.777355798098326 -0.6290611760098652 0  -0.7646134094859816 -0.6444892039702625 0  -0.7515648753881492 -0.6596591832778468 0  -0.7382154203402048 -0.6745650399864603 0  -0.7245703893640192 -0.6892008059026583 0  -0.7106352458278522 -0.7035606209753272 0  -0.6964155692588621 -0.7176387356420046 0  -0.6819170531091017 -0.7314295131309637 0  -0.667145502475907 -0.7449274317181303 0  -0.6521068317775756 -0.758127086937944 0  -0.6368070623852792 -0.7710231937472641 0  -0.6212523202121544 -0.7836105886414596 0  -0.6054488332605283 -0.795884231721841 0  -0.5894029291282762 -0.8078392087135956 0  -0.5731210324752977 -0.8194707329334274 0  -0.5566096624511304 -0.8307741472061095 0  -0.5398754300847344 -0.8417449257291802 0  -0.5229250356374798 -0.8523786758850437 0  -0.5057652659204195 -0.8626711399997379 0  -0.4884029915768943 -0.872618197047678 0  -0.4708451643315825 -0.8822158643016828 0  -0.4530988142070805 -0.8914602989276289 0  -0.4351710467091333 -0.900347799523094 0  -0.4170690399816467 -0.9088748075993677 0  -0.3988000419326073 -0.9170379090062475 0  -0.3803713673320777 -0.9248338352990366 0  -0.3617903948834162 -0.9322594650472055 0  -0.3430645642688988 -0.9393118250841893 0  -0.3242013731709283 -0.9459880916978207 0  -0.3052083742700169 -0.9522855917609241 0  -0.2860931722207477 -0.9582018038016155 0  -0.2668634206069305 -0.963734359012881 0  -0.2475268188771631 -0.968881042201029 0  -0.2280911092620301 -0.9736397926726376 0  -0.2085640736741706 -0.9780087050596407 0  -0.1889535305924619 -0.9819860300822225 0  -0.1692673319315544 -0.9855701752492173 0  -0.1495133598980269 -0.9887597054957302 0  -0.1296995238344092 -0.9915533437577262 0  -0.1098337570523396 -0.9939499714833577 0  -0.08992401365612945 -0.9959486290808237 0  -0.06997826535799691 -0.9975485163025836 0  -0.05000449828625168 -0.9987489925657699 0  -0.030010709787
[...]
<PointData  Scalars="Displacement"> 
<DataArray  type="Float64"  Name="Displacement"  format="ascii">0.0000000000000000e+00  0.0000000000000000e+00  0.0000000000000000e+00  0.0000000000000000e+00  0.0000000000000000e+00  0.0000000000000000e+00  0.0000000000000000e+00  0.0000000000000000e+00  0.0000000000000000e+00  0.0000000000000000e+00  0.0000000000000000e+00  0.0000000000000000e+00  0.0000000000000000e+00  0.0000000000000000e+00  0.0000000000000000e+00  0.0000000000000000e+00  0.0000000000000000e+00  0.0000000000000000e+00  0.0000000000000000e+00  0.0000000000000000e+00  0.0000000000000000e+00  0.0000000000000000e+00  0.0000000000000000e+00  0.0000000000000000e+00  0.0000000000000000e+00  0.0000000000000000e+00  0.0000000000000000e+00  0.0000000000000000e+00  0.0000000000000000e+00  0.0000000000000000e+00  0.0000000000000000e+00  0.0000000000000000e+00  0.0000000000000000e+00  0.0000000000000000e+00  0.0000000000000000e+00  0.0000000000000000e+00  0.0000000000000000e+00  0.0000000000000000e+00  0.0000000000000000e+00  0.0000000000000000e+00  0.0000000000000000e+00  0.0000000000000000e+00  0.0000000000000000e+00  0.0000000000000000e+00  0.0000000000000000e+00  0.0000000000000000e+00  0.0000000000000000e+00  0.0000000000000000e+00  0.0000000000000000e+00  0.0000000000000000e+00  0.0000000000000000e+00  0.0000000000000000e+00  0.0000000000000000e+00  0.0000000000000000e+00  0.0000000000000000e+00  0.0000000000000000e+00  0.0000000000000000e+00  0.0000000000000000e+00  0.0000000000000000e+00  0.0000000000000000e+00  0.0000000000000000e+00  0.0000000000000000e+00  0.0000000000000000e+00  0.0000000000000000e+00  0.0000000000000000e+00  0.0000000000000000e+00  0.0000000000000000e+00  0.0000000000000000e+00  0.0000000000000000e+00  0.0000000000000000e+00  0.0000000000000000e+00  0.0000000000000000e+00  0.0000000000000000e+00  0.0000000000000000e+00  0.0000000000000000e+00  0.0000000000000000e+00  0.0000000000000000e+00  0.0000000000000000e+00  0.0000000000000000e+00  0.0000000000000000e+00  0.0000000000000000e+00  0.0000000000000000e+00  0.0000000000000000e+00  0.0000000000000000e+00  0.0000000000000000e+00  0.0000000000000000e+00  0.0000000000000000e+00  0.0000000000000000e+00  0.0000000000000000e+00  0.0000000000000000e+00  0.0000000000000000e+00  0.0000000000000000e+00  0.0000000000000000e+00  0.0000000000000000e+00  0.0000000000000000e+00  0.0000000000000000e+00  0.0000000000000000e+00  0.0000000000000000e+00  0.0000000000000000e+00  0.0000000000000000e+00  0.0000000000000000e+00  0.0000000000000000e+00  0.0000000000000000e+00  0.0000000000000000e+00  0.0000000000000000e+00  0.0000000000000000e+00  0.0000000000000000e+00  0.0000000000000000e+00  0.0000000000000000e+00  0.0000000000000000e+00  0.0000000000000000e+00  0.0000000000000000e+00  0.0000000000000000e+00  0.0000000000000000e+00  0.0000000000000000e+00  0.0000000000000000e+00  0.0000000000000000e+00  0.0000000000000000e+00  0.0000000000000000e+00  0.0000000000000000e+00  0.0000000000000000e+00  0.0000000000000000e+00  0.0000000000000000e+00  0.0000000000000000e+00  0.0000000000000000e+00  0.0000000000000000e+00  0.0000000000000000e+00  0.0000000000000000e+00  0.0000000000000000e+00  0.0000000000000000e+00  0.0000000000000000e+00  0.0000000000000000e+00  0.0000000000000000e+00  0.0000000000000000e+00  0.0000000000000000e+00  0.0000000000000000e+00  0.0000000000000000e+00  0.0000000000000000e+00  0.0000000000000000e+00  0.0000000000000000e+00  0.0000000000000000e+00  0.0000000000000000e+00  0.0000000000000000e+00  0.0000000000000000e+00  0.0000000000000000e+00  0.0000000000000000e+00  0.0000000000000000e+00  0.0000000000000000e+00  0.0000000000000000e+00  0.0000000000000000e+00  0.0000000000000000e+00  0.0000000000000000e+00  0.0000000000000000e+00  0.0000000000000000e+00  0.0000000000000000e+00  0.0000000000000000e+00  0.0000000000000000e+00  0.0000000000000000e+00  0.0000000000000000e+00  0.0000000000000000e+00  0.0000000000000000e+00  0.0000000000000000e+00  0.0000000000000000e+00  0.0000000000000000e+00  0.0000000000000000e+00  0.0000000000000000e+00  0.0000000000000000e+00  0.0000000000000000e+00  0.0000000000000000e+00  0.0000000000000000e+00  0.0000000000000000e+00  0.0000000000000000e+00  0.0000000000000000e+00  0.0000000000000000e+00  0.0000000000000000e+00  0.0000000000000000e+00  0.0000000000000000e+00  0.0000000000000000e+00  0.0000000000000000e+00  0.0000000000000000e+00  0.0000000000000000e+00  0.0000000000000000e+00  0.0000000000000000e+00  0.0000000000000000e+00  0.0000000000000000e+00  0.0000000000000000e+00  0.0000000000000000e+00  0.0000000000000000e+00  0.0000000000000000e+00  0.0000000000000000e+00  0.0000000000000000e+00  0.0000000000000000e+00  0.0000000000000000e+00  0.0000000000000000e+00  0.0000000000000000e+00  0.0000000000000000e+00  0.0000000000000000e+00  0.0000000000000000e+00  0.0000000000000000e+00  0.0000000000000000e+00  0.0000000000000000e+00  0.0000000000000000e+00  0.0000000000000000e+00  0.0000000000000000e+00  0.0000000000000000e+00  0.0000000000000000e+00  0.0000000000000000e+00  0.0000000000000000e+00  0.0000000000000000e+00  0.0000000000000000e+00  0.0000000000000000e+00  0.0000000000000000e+00  0.0000000000000000e+00  0.0000000000000000e+00  0.0000000000000000e+00  0.0000000000000000e+00  0.0000000000000000e+00  0.0000000000000000e+00  0.0000000000000000e+00  0.0000000000000000e+00  0.0000000000000000e+00  0.0000000000000000e+00  0.0000000000000000e+00  0.0000000000000000e+00  0.0000000000000000e+00  0.0000000000000000e+00  0.0000000000000000e+00  0.0000000000000000e+00  0.0000000000000000e+00  0.0000000000000000e+00  0.0000000000000000e+00  0.0000000000000000e+00  0.0000000000000000e+00  0.0000000000000000e+00  0.0000000000000000e+00  0.0000000000000000e+00  0.0000000000000000e+00  0.0000000000000000e+00  0.0000000000000000e+00  0.0000000000000000e+00  0.0000000000000000e+00  0.0000000000000000e+00  0.0000000000000000e+00  0.0000000000000000e+00  0.0000000000000000e+00  0.0000000000000000e+00  0.0000000000000000e+00  0.0000000000000000e+00  0.0000000000000000e+00  0.0000000000000000e+00  0.0000000000000000e+00  0.0000000000000000e+00  0.0000000000000000e+00  0.0000000000000000e+00  0.0000000000000000e+00  0.0000000000000000e+00  0.0000000000000000e+00  0.0000000000000000e+00  0.0000000000000000e+00  0.0000000000000000e+00  0.0000000000000000e+00  0.0000000000000000e+00  0.0000000000000000e+00  0.0000000000000000e+00  0.0000000000000000e+00  0.0000000000000000e+00  0.0000000000000000e+00  0.0000000000000000e+00  0.0000000000000000e+00  0.0000000000000000e+00  0.0000000000000000e+00  0.0000000000000000e+00  0.0000000000000000e+00  0.0000000000000000e+00  0.0000000000000000e+00  0.0000000000000000e+00  0.0000000000000000e+00  0.0000000000000000e+00  0.0000000000000000e+00  0.0000000000000000e+00  0.0000000000000000e+00  0.0000000000000000e+00  0.0000000000000000e+00  0.0000000000000000e+00  0.0000000000000000e+00  0.0000000000000000e+00  0.0000000000000000e+00  0.0000000000000000e+00  0.0000000000000000e+00  0.0000000000000000e+00  0.0000000000000000e+00  0.0000000000000000e+00  0.0000000000000000e+00  0.0000000000000000e+00  0.0000000000000000e+00  0.0000000000000000e+00  0.0000000000000000e+00  0.0000000000000000e+00  0.0000000000000000e+00  0.0000000000000000e+00  0.0000000000000000e+00  0.0000000000000000e+00  0.0000000000000000e+00  0.0000000000000000e+00  0.0000000000000000e+00  0.0000000000000000e+00  0.0000000000000000e+00  0.0000000000000000e+00  0.0000000000000000e+00  0.0000000000000000e+00  0.0000000000000000e+00  0.0000000000000000e+00  0.0000000000000000e+00  0.0000000000000000e+00  7.3335569741269074e+115  1.8188407833418273e+110  9.7373333252813067e+111  6.9504060669028538e+112  6.7514177362106095e+111  1.0452642361822811e+112  2.9968690469373750e+109  1.2784419287298242e+106  -2.2395374354143262e+108  -9.2827910270285589e+105  -4.5707311439352936e+107  4.8634386922674136e+115  6.1209160642690316e+107  -8.2170003703981853e+105  -3.8642517679678689e+115  1.0879581562255052e+115  -1.9070243153734328e+106  1.1961869215567422e+105  -1.5285536299632276e+104  -1.1942540203706246e+106  -6.4308313268371426e+102  -1.5775080885928646e+105  4.9614049972828920e+103  -5.6492669560596753e+112  -7.9896284757881741e+115  1.4641963359262342e+115  -2.3305494016127476e+106  5.1361174719177126e+103  -3.8307967213701981e+105  8.2481156630289280e+112  4.9424183622769656e+103  5.0776058366584089e+115  1.1107314858276687e+116  1.2185087687179954e+115  -3.4909268908170049e+104  1.1143997541158510e+103  2.8514294889099926e+102  1.9509292813469796e+103  1.1805743902308963e+104  9.7727227244437755e+110  -1.3135947676420744e+112  -1.9321115225291578e+108  -1.0758149741187748e+110  -2.3239459242900899e+116  -3.8989323416780057e+102  1.0731154369562043e+102  -4.3179365637154895e+102  -1.5046705159619365e+102  1.7281800327193605e+109  -6.3546561726448514e+108  -4.3677612980164708e+108  -1.1511702734521034e+109  3.1681439172699572e+110  -1.2951787674993483e+113  4.1359591837727600e+104  -4.5041588511303837e+115  -1.0549408902374636e+103  1.2670054091466376e+103  -3.8814106471157323e+112  -4.2871994093085892e+102  8.4772754520319590e+102  1.3088638389307144e+106  -1.7101749657473886e+101  -6.2056886386517248e+101  -4.6785934860051742e+115  1.2028356601492660e+116  5.7041295768263649e+115  -6.9639262300345371e+110  2.9973140754271367e+115  -5.3246221556300953e+114  1.0130083442885039e+115  4.4211536966891318e+109  1.1360502754030738e+110  1.2542068509931450e+109  -3.2901270744107690e+108  4.5334375050865655e+113  -1.7006045921187749e+102  -6.2227314886530975e+111  -5.7521288124641266e+112  -1.0501642165191105e+108  -2.4524873527567634e+102  -2.2457904607517980e+112  -1.3723876342736298e+102  -2.9762927839870129e+101  -1.6721966841534592e+101  9.9293205870111874e+117  -2.1140454120044830e+102  1.2311778227817659e+101  1.4661798914976087e+100  3.9693372277427127e+114  1.3857001509990361e+106  1.3450261367859845e+102  5.2151648710712820e+107  -7.5235173165581104e+100  1.8038997300606423e+107  1.9698203296312315e+117  -2.7438608150010605e+100  -1.2305479685706256e+102  -1.3362702688655774e+106  -7.6995681670927563e+104  -2.9048337353576247e+107  1.9876768215178384e+107  4.0793020760264123e+101  1.5797082250856663e+112  -5.5479331095728348e+109  -1.3071958023762745e+110  5.6274956370114347e+112  1.7342973070247312e+106  -9.1684765146445198e+106  -3.2329708679914486e+101  2.6989159579215746e+112  -3.2503103410817732e+102  -4.9901273009389666e+100  -4.8139118925920424e+109  -8.2361356248944848e+109  -2.8350295549148806e+104  -2.0729511632889357e+99  6.1751655819989801e+100  -6.6688863092133069e+99  3.6612215132546408e+115  -2.9133692043060679e+113  9.5722112799010919e+104  5.1089496836703901e+116  -2.9833903470508991e+102  -6.4904991096628106e+106  -1.3164006160156163e+105  1.3593495124598228e+101  -8.1280460012708368e+100  1.2367069588829291e+105  8.1654236260588338e+106  2.1077024519581717e+107  1.5800656940930493e+106  -2.4161953031311024e+109  -4.6221572125932246e+111  -5.4251942799552733e+107  4.6890506172550221e+105  9.9729339215773456e+101  3.8638747544977658e+119  8.6221952942406051e+113  -1.2567886918408936e+114  -3.1060954304022138e+115  -6.8136694998474736e+118  -2.3747352104515021e+103  2.2852442473876238e+115  -2.6178824755539498e+109  -2.4042594303650039e+104  -6.9774746520557857e+103  -9.1609693498297716e+113  3.5195061701461326e+117  -1.1024769362999444e+107  5.7641168333200553e+100  4.1554341090745127e+110  -3.7938508550949490e+115  1.3914526513067145e+103  -6.2461651972016503e+103  1.3510711747512467e+102  -3.1610844396131787e+98  1.7588499560692531e+105  1.0428169086608983e+101  -1.6954005820794317e+99  -1.0411348649855361e+100  3.0091468297199319e+103  1.8519258723213323e+108  -9.7654683738556939e+100  -2.2339954078866764e+104  -3.4234962975719881e+110  -1.1796206182238125e+106  2.8534584823934672e+101  8.5968038467261842e+99  1.5609683220290585e+103  1.7765506977214699e+110  3.8407306287581818e+115  3.8794983578492654e+103  2.5035053143771305e+114  -8.8150833358345058e+99  -2.6940256950132520e+110  5.0384999258050023e+100  1.4416312959596486e+105  2.0955170134765242e+100  -2.6269710415003268e+111  -9.7793389097487294e+103  -8.5785317449816801e+111  -5.2989871627924200e+107  8.1506150765033975e+117  -1.2954314635647206e+99  2.3361300339505324e+109  -1.2971177506642863e+108  -9.7811269782186764e+111  3.2953747572112409e+100  -1.2591636452297933e+103  1.8652137064969808e+100  1.4410886849584497e+116  -5.9651590530716388e+99  -1.5903416685053097e+101  1.1298639764980177e+113  -3.7088239933941172e+115  1.3743968380166440e+105  1.7578621330756404e+105  -6.8346768155187692e+110  -1.4207927595908984e+107  2.8031903842352327e+109  9.9040026701942879e+108  1.1548004038744523e+110  -1.5518795384850977e+106  7.5020443489710046e+106  2.9492000690260934e+102  -5.7971226255279207e+103  2.3643445733085775e+115  9.9827712569826956e+101  -2.2990621969453263e+104  -1.2132755311454454e+104  -2.4327118751097835e+115  4.2438654601671836e+114  -3.1569348216936844e+102  6.7952641399192717e+99  -4.6428543811023252e+105  -8.7151214256763126e+113  -3.0078591654115193e+99  8.0791298880504628e+106  -1.9569018599018667e+107  -5.8551626383188714e+102  -6.2997009787678173e+107  8.2526171988340756e+112  1.6198110384986930e+108  -1.7955263310115660e+108  1.5718322913018402e+100  -8.5156257102940626e+104  3.2196096519322759e+100  -2.5098261895116544e+106  2.3403791399951149e+99  -1.5848501408259685e+101  2.0246979981901618e+101  -2.5766155544461755e+100  -9.1869888634208346e+102  1.4736487531524158e+100  5.9420071104486415e+110  9.7442075781491625e+107  -3.5411121008306968e+102  1.5783250617784785e+103  -1.3381347993177142e+114  2.3865319585779829e+115  -1.4527923150839179e+108  -1.1610339370992092e+109  1.0033903785406901e+101  -1.3809470201971464e+112  -1.3364160381243643e+102  -1.7599066406085076e+100  6.2218373929034794e+99  -2.9467930297663308e+113  3.4168834849174014e+110  7.6524732918665246e+109  -6.9186861666602423e+108  -3.4112246532161724e+116  1.0508923562907502e+116  -1.0104037759262685e+102  5.3940185357938493e+113  1.7182065993948001e+106  -4.2401054090368413e+110  -8.1899381211164843e+100  -2.0301401089593729e+99  -1.9021415567472678e+99  5.8072063253069940e+106  -2.9448314596996432e+103  1.5165884352786970e+111  6.8661551252396604e+112  3.8429768870204089e+113  -1.9451762680498760e+103  -2.6014399277446535e+101  -2.4229007277384109e+99  -1.4479551593069319e+108  -1.4481634910509942e+98  4.8448012274677343e+114  -4.6621365158820504e+112  -1.9138872154584987e+104  2.1039789914675663e+103  -2.2425357102818934e+105  1.8266282773920771e+116  -4.5788828166857510e+114  -2.4314476732593042e+113  -2.3948463456874087e+112  1.9338608945765314e+114  -1.4889104453863504e+113  8.8408030875549647e+116  2.4256742259655527e+109  1.6538128487333092e+107  -2.0781313486744210e+104  -1.7419390690834869e+117  1.3862418930229539e+101  -2.7616798855672232e+103  -5.3180139337038264e+113  1.0361663794407965e+117  1.8372103267556490e+113  2.8732847430746855e+108  2.9264090705900507e+110  -7.5381049672024976e+117  -2.4214253772343937e+100  1.5086267774243738e+113  1.2196033316817029e+98  3.5439429532227949e+99  -2.4113582658108581e+99  -6.8459666713345035e+114  -6.6230594770651396e+112  -1.0540286197381583e+116  -2.6413148625500556e+116  4.3436827811671065e+108  5.9609028111644334e+106  -1.5315423902158029e+106  -7.4857449217711345e+108  -3.5722996629722808e+109  1.5987506925261545e+107  -1.4467334401785911e+110  1.9429705975145918e+108  -1.4838035137610489e+115  1.9821925670785813e+104  -4.7419644534986301e+115  4.1979355076344230e+114  -6.1864703232430509e+109  -1.3244993637950266e+103  -5.2695752427902058e+105  -2.5775205260084057e+99  2.3162944458513894e+103  1.4382739414193191e+104  -3.7642064412243697e+100  9.4228182519348286e+114  2.6483290467007402e+99  -1.7028597260503534e+99  -1.1692588574716545e+102  1.2908819969563181e+114  6.9166202322948459e+112  6.3036746739876077e+115  3.0375900437810852e+99  -1.1469226045049955e+105  2.9905366783718516e+107  4.4167385660542482e+111  -8.4368370005372739e+111  -6.3421745504425604e+105  -1.9813874858261488e+112  -8.5559923687534195e+112  -1.4803657840691925e+118  1.9134450750864481e+105  -8.7471812408359555e+103  4.9131324431885237e+110  -5.5699136436299276e+100  1.0839039239494195e+102  3.2532321527110769e+107  2.8336059177327186e+99  1.4010773968375787e+104  -3.8814198259432398e+105  4.3737559088517440e+98  9.8915169175504367e+105  1.0719140981866726e+107  -2.1129597972120257e+100  -1.6484337402020040e+103  -9.0134922611298978e+98  2.6147536143701469e+103  -1.5884426065445547e+103  -3.6013144120680348e+108  1.1439384441231386e+117  -3.3161883195017826e+100  6.9873967055233630e+114  -1.4877462706883270e+115  2.4621378624239428e+103  1.3230872094447486e+100  -7.5568124573481464e+108  1.1024061914086535e+103  -1.2056940372857673e+117  2.2816566619980113e+102  2.1525421911013255e+104  5.6960155835235581e+115  -1.8128185049674589e+102  -4.8851473581664043e+98  4.3155215742651123e+99  2.7135029591234103e+103  6.0250213809627776e+113  -5.1957795491305476e+112  -4.0178249149746695e+106  1.3704934048819830e+102  6.1389564939427107e+115  -2.1235437930237776e+107  2.8998131418108678e+100  -2.2661652137834037e+110  -1.3206525204559151e+100  -3.8561914114280903e+102  -1.8006080471855482e+111  -3.6021571874876078e+99  -1.8224058246929007e+118  8.5749639941234456e+99  -9.2323473560315534e+102  8.2384317774382239e+98  -1.4756839551052634e+112  3.0670089518529440e+108  -1.8166638710686994e+105  -1.3907880570788240e+110  -2.8708367360659374e+98  -5.4686745622676193e+103  -2.3283898399717625e+112  -6.9306129976356468e+100  2.4663777165586788e+110  1.0509518449059027e+106  6.2124857612602240e+98  1.2570752933181494e+99  -3.1156055098898242e+111  -2.5530953943731753e+101  7.1959350257324774e+111  -1.2138722880908798e+105  8.7966230351774582e+112  2.0946093244502977e+109  -6.7477412080929110e+99  -6.7916713320892700e+102  -9.7912808583060154e+102  -3.9181578877638158e+102  -2.9405708982018903e+102  -5.8812843634348978e+113  2.4826835479732834e+115  -8.9499718965836985e+117  -4.0526780449480157e+113  2.5783685292731095e+103  -1.6513387703070005e+116  2.9174546451461167e+113  -1.1932327587321572e+103  1.5878005328954453e+99  4.8102827633407150e+99  5.9117344061306426e+107  -2.1925260756862666e+107  -1.8501633902547049e+104  6.3209481875727130e+113  7.3213468142874044e+105  2.1139914881984732e+99  -7.1702141411693213e+98  -2.9988001531746521e+100  -1.1820865262855175e+108  5.2835009232017962e+102  5.6073126389988878e+105  -8.1313397558179471e+101  -8.5332984920322754e+101  8.3635242750494399e+102  -2.5442315531983712e+108  -2.0304919131046037e+102  4.3094937343223188e+111  1.5434140555939904e+110  -5.7088602761138490e+110  6.5017772040942854e+107  6.0432953397308409e+108  -1.1465557168867245e+111  -6.5720922941700886e+102  8.0231457999445350e+113  -6.4585476786091374e+103  -2.7047266056812839e+117  -1.5009350948192140e+107  -3.1589764817348320e+112  6.9597658955075878e+109  3.7258817254719521e+117  -1.6847389342150381e+103  -1.0841496101179791e+100  -3.6705289895337193e+100  2.2370461966338586e+116  -3.5262101906495824e+104  7.6760302151850507e+109  1.7604223018993786e+111  -6.2022866642259550e+101  -4.3374230220845377e+108  7.3924099116626502e+98  2.6328387943981855e+117  3.1580232525197775e+117  2.8254495311456257e+114  -1.4543635193043027e+105  -5.1505908515336688e+102  -7.8191957607531676e+102  -1.8496851213045594e+104  3.9639195902627098e+107  -2.1193324838938951e+110  -1.0099838339538959e+101  3.7607688272007937e+112  -6.3395990305994417e+109  -3.4277936945927625e+104  4.8363766928284428e+116  -2.5295073817671347e+105  3.4585499460653209e+110  1.7293589280868990e+107  9.3837938681429049e+108  2.3974305919742148e+106  -1.7805242129491831e+104  2.2346298725746876e+99  6.1684443547316043e+101  1.5244229525700819e+99  8.4217607055761614e+101 