<?xml version="1.0"?>
<VTKFile type="UnstructuredGrid"  version="0.1"  >
<UnstructuredGrid>
<Piece  NumberOfPoints="20054" NumberOfCells="39478">
<Points>
<DataArray  type="Float64"  NumberOfComponents="3"  format="ascii">1 0 0  0.9997998037428526 0.02000880895389431 0  0.9991992951284931 0.04000960653046352 0  0.9981987145960756 0.05999438456007805 0  0.9967984627705549 0.07995514128721501 0  0.9949991003022806 0.09988388457430118 0  0.9928013476425149 0.1197726351017051 0  0.9902060847549715 0.139613429562597 0  0.987214350763483 0.1593983238513969 0  0.9838273435359444 0.1791193962445356 0  0.9800464192046954 0.198768750572253 0  0.9758730916235354 0.2183385193801655 0  0.9713090317615876 0.237820867079336 0  0.9663560670342555 0.2572079930835849 0  0.9610161805715396 0.2764921349327862 0  0.9552915104240066 0.2956655714008991 0  0.9491843487067304 0.3147206255874884 0  0.9426971406815462 0.3336496679914983 0  0.9358324837779861 0.3524451195660473 0  0.9285931265532873 0.3710994547530225 0  0.9209819675918909 0.3896052044962556 0  0.9130020543448703 0.4079549592320781 0  0.9046565819097542 0.4261413718560547 0  0.8959488917512338 0.4441571606647087 0  0.8868824703632656 0.4619951122710622 0  0.8774609478731046 0.4796480844928215 0  0.8676880965878291 0.4971090092120542 0  0.8575678294839372 0.5143708952052096 0  0.8471041986406199 0.5314268309423539 0  0.8363013936173391 0.5482699873544935 0  0.8251637397763597 0.5648936205678837 0  0.8136956965509062 0.5812910746042258 0  0.8019018556596399 0.5974557840456699 0  0.7897869392681683 0.6133812766635599 0  0.777355798098326 0.6290611760098652 0  0.7646134094859813 0.6444892039702628 0  0.7515648753881492 0.6596591832778468 0  0.7382154203402046 0.6745650399864606 0  0.7245703893640189 0.6892008059026586 0  0.7106352458278521 0.7035606209753273 0  0.6964155692588616 0.7176387356420051 0  0.6819170531091018 0.7314295131309636 0  0.6671455024759069 0.7449274317181303 0  0.6521068317775753 0.7581270869379442 0  0.6368070623852795 0.7710231937472638 0  0.6212523202121545 0.7836105886414595 0  0.6054488332605282 0.795884231721841 0  0.5894029291282759 0.8078392087135958 0  0.5731210324752972 0.8194707329334278 0  0.5566096624511305 0.8307741472061095 0  0.5398754300847343 0.8417449257291802 0  0.5229250356374803 0.8523786758850435 0  0.5057652659204196 0.8626711399997378 0  0.4884029915768944 0.8726181970476778 0  0.4708451643315825 0.8822158643016828 0  0.45309881420708 0.8914602989276292 0  0.4351710467091336 0.9003477995230937 0  0.4170690399816468 0.9088748075993677 0  0.398800041932607 0.9170379090062476 0  0.3803713673320772 0.9248338352990368 0  0.3617903948834157 0.9322594650472057 0  0.3430645642688987 0.9393118250841893 0  0.3242013731709288 0.9459880916978206 0  0.3052083742700172 0.952285591760924 0  0.2860931722207478 0.9582018038016155 0  0.2668634206069304 0.963734359012881 0  0.2475268188771628 0.9688810422010291 0  0.2280911092620296 0.9736397926726377 0  0.2085640736741707 0.9780087050596407 0  0.1889535305924618 0.9819860300822225 0  0.1692673319315541 0.9855701752492174 0  0.1495133598980264 0.9887597054957302 0  0.1296995238344084 0.9915533437577263 0  0.1098337570523395 0.9939499714833577 0  0.08992401365612977 0.9959486290808237 0  0.06997826535799723 0.9975485163025836 0  0.05000449828625179 0.9987489925657699 0  0.03001070978771124 0.9995495772086734 0  0.01000490522562346 0.9999499496831961 0  -0.01000490522562333 0.9999499496831961 0  -0.03001070978771133 0.9995495772086734 0  -0.05000449828625144 0.9987489925657699 0  -0.06997826535799688 0.9975485163025836 0  -0.08992401365612987 0.9959486290808237 0  -0.1098337570523394 0.9939499714833577 0  -0.1296995238344082 0.9915533437577263 0  -0.1495133598980262 0.9887597054957303 0  -0.1692673319315537 0.9855701752492174 0  -0.1889535305924614 0.9819860300822226 0  -0.2085640736741705 0.9780087050596407 0  -0.2280911092620295 0.9736397926726377 0  -0.2475268188771627 0.9688810422010291 0  -0.2668634206069302 0.9637343590128811 0  -0.2860931722207475 0.9582018038016156 0  -0.3052083742700173 0.9522855917609239 0  -0.3242013731709289 0.9459880916978205 0  -0.3430645642688986 0.9393118250841894 0  -0.3617903948834154 0.9322594650472058 0  -0.380371367332077 0.924833835299037 0  -0.3988000419326071 0.9170379090062476 0  -0.4170690399816465 0.9088748075993678 0  -0.4351710467091335 0.9003477995230939 0  -0.4530988142070799 0.8914602989276292 0  -0.4708451643315824 0.8822158643016829 0  -0.4884029915768945 0.8726181970476778 0  -0.5057652659204197 0.8626711399997378 0  -0.5229250356374801 0.8523786758850437 0  -0.5398754300847342 0.8417449257291804 0  -0.5566096624511303 0.8307741472061098 0  -0.5731210324752971 0.8194707329334279 0  -0.589402929128276 0.8078392087135957 0  -0.6054488332605281 0.7958842317218411 0  -0.6212523202121542 0.7836105886414597 0  -0.6368070623852793 0.7710231937472639 0  -0.652106831777575 0.7581270869379444 0  -0.6671455024759069 0.7449274317181304 0  -0.6819170531091018 0.7314295131309636 0  -0.6964155692588616 0.7176387356420052 0  -0.7106352458278521 0.7035606209753273 0  -0.7245703893640187 0.6892008059026588 0  -0.7382154203402043 0.6745650399864608 0  -0.751564875388149 0.6596591832778469 0  -0.7646134094859813 0.6444892039702628 0  -0.7773557980983258 0.6290611760098654 0  -0.7897869392681683 0.6133812766635599 0  -0.8019018556596398 0.59745578404567 0  -0.8136956965509062 0.5812910746042258 0  -0.8251637397763595 0.5648936205678839 0  -0.836301393617339 0.5482699873544935 0  -0.8471041986406197 0.5314268309423542 0  -0.8575678294839372 0.5143708952052097 0  -0.8676880965878292 0.497109009212054 0  -0.8774609478731045 0.4796480844928216 0  -0.8868824703632656 0.4619951122710621 0  -0.8959488917512338 0.4441571606647088 0  -0.904656581909754 0.426141371856055 0  -0.9130020543448703 0.4079549592320783 0  -0.920981967591891 0.3896052044962555 0  -0.9285931265532872 0.3710994547530226 0  -0.9358324837779861 0.3524451195660473 0  -0.9426971406815462 0.3336496679914984 0  -0.9491843487067303 0.3147206255874888 0  -0.9552915104240065 0.2956655714008993 0  -0.9610161805715396 0.2764921349327862 0  -0.9663560670342555 0.2572079930835851 0  -0.9713090317615876 0.2378208670793361 0  -0.9758730916235353 0.2183385193801658 0  -0.9800464192046954 0.198768750572253 0  -0.9838273435359444 0.1791193962445354 0  -0.987214350763483 0.159398323851397 0  -0.9902060847549714 0.1396134295625972 0  -0.9928013476425149 0.1197726351017052 0  -0.9949991003022804 0.09988388457430147 0  -0.9967984627705549 0.07995514128721509 0  -0.9981987145960756 0.05999438456007793 0  -0.9991992951284931 0.04000960653046362 0  -0.9997998037428526 0.02000880895389464 0  -1 1.224646799147353e-16 0  -0.9997998037428526 -0.0200088089538944 0  -0.9991992951284931 -0.04000960653046338 0  -0.9981987145960756 -0.05999438456007812 0  -0.9967984627705549 -0.07995514128721484 0  -0.9949991003022806 -0.09988388457430078 0  -0.9928013476425149 -0.1197726351017049 0  -0.9902060847549715 -0.1396134295625965 0  -0.9872143507634831 -0.1593983238513963 0  -0.9838273435359444 -0.1791193962445356 0  -0.9800464192046953 -0.1987687505722532 0  -0.9758730916235354 -0.2183385193801655 0  -0.9713090317615876 -0.2378208670793363 0  -0.9663560670342556 -0.2572079930835848 0  -0.9610161805715396 -0.276492134932786 0  -0.9552915104240066 -0.2956655714008991 0  -0.9491843487067305 -0.3147206255874881 0  -0.9426971406815464 -0.3336496679914978 0  -0.9358324837779862 -0.3524451195660471 0  -0.9285931265532875 -0.371099454753022 0  -0.9209819675918909 -0.3896052044962557 0  -0.9130020543448704 -0.407954959232078 0  -0.9046565819097541 -0.4261413718560548 0  -0.8959488917512338 -0.4441571606647086 0  -0.8868824703632655 -0.4619951122710623 0  -0.8774609478731046 -0.4796480844928214 0  -0.8676880965878293 -0.4971090092120538 0  -0.8575678294839373 -0.5143708952052095 0  -0.84710419864062 -0.5314268309423537 0  -0.8363013936173395 -0.5482699873544929 0  -0.8251637397763596 -0.5648936205678838 0  -0.8136956965509061 -0.5812910746042259 0  -0.8019018556596399 -0.5974557840456699 0  -0.7897869392681682 -0.61338127666356 0  -0.777355798098326 -0.6290611760098652 0  -0.7646134094859816 -0.6444892039702625 0  -0.7515648753881492 -0.6596591832778468 0  -0.7382154203402048 -0.6745650399864603 0  -0.7245703893640192 -0.6892008059026583 0  -0.7106352458278522 -0.7035606209753272 0  -0.6964155692588621 -0.7176387356420046 0  -0.6819170531091017 -0.7314295131309637 0  -0.667145502475907 -0.7449274317181303 0  -0.6521068317775756 -0.758127086937944 0  -0.6368070623852792 -0.7710231937472641 0  -0.6212523202121544 -0.7836105886414596 0  -0.6054488332605283 -0.795884231721841 0  -0.5894029291282762 -0.8078392087135956 0  -0.5731210324752977 -0.8194707329334274 0  -0.5566096624511304 -0.8307741472061095 0  -0.5398754300847344 -0.8417449257291802 0  -0.5229250356374798 -0.8523786758850437 0  -0.5057652659204195 -0.8626711399997379 0  -0.4884029915768943 -0.872618197047678 0  -0.4708451643315825 -0.8822158643016828 0  -0.4530988142070805 -0.8914602989276289 0  -0.4351710467091333 -0.900347799523094 0  -0.4170690399816467 -0.9088748075993677 0  -0.3988000419326073 -0.9170379090062475 0  -0.3803713673320777 -0.9248338352990366 0  -0.3617903948834162 -0.9322594650472055 0  -0.3430645642688988 -0.9393118250841893 0  -0.3242013731709283 -0.9459880916978207 0  -0.3052083742700169 -0.9522855917609241 0  -0.2860931722207477 -0.9582018038016155 0  -0.2668634206069305 -0.963734359012881 0  -0.2475268188771631 -0.968881042201029 0  -0.2280911092620301 -0.9736397926726376 0  -0.2085640736741706 -0.9780087050596407 0  -0.1889535305924619 -0.9819860300822225 0  -0.1692673319315544 -0.9855701752492173 0  -0.1495133598980269 -0.9887597054957302 0  -0.1296995238344092 -0.9915533437577262 0  -0.1098337570523396 -0.9939499714833577 0  -0.08992401365612945 -0.9959486290808237 0  -0.06997826535799691 -0.9975485163025836 0  -0.05000449828625168 -0.9987489925657699 0  -0.030010709787
[...]
<PointData  Scalars="Displacement"> 
<DataArray  type="Float64"  Name="Displacement"  format="ascii">0.0000000000000000e+00  0.0000000000000000e+00  0.0000000000000000e+00  0.0000000000000000e+00  0.0000000000000000e+00  0.0000000000000000e+00  0.0000000000000000e+00  0.0000000000000000e+00  0.0000000000000000e+00  0.0000000000000000e+00  0.0000000000000000e+00  0.0000000000000000e+00  0.0000000000000000e+00  0.0000000000000000e+00  0.0000000000000000e+00  0.0000000000000000e+00  0.0000000000000000e+00  0.0000000000000000e+00  0.0000000000000000e+00  0.0000000000000000e+00  0.0000000000000000e+00  0.0000000000000000e+00  0.0000000000000000e+00  0.0000000000000000e+00  0.0000000000000000e+00  0.0000000000000000e+00  0.0000000000000000e+00  0.0000000000000000e+00  0.0000000000000000e+00  0.0000000000000000e+00  0.0000000000000000e+00  0.0000000000000000e+00  0.0000000000000000e+00  0.0000000000000000e+00  0.0000000000000000e+00  0.0000000000000000e+00  0.0000000000000000e+00  0.0000000000000000e+00  0.0000000000000000e+00  0.0000000000000000e+00  0.0000000000000000e+00  0.0000000000000000e+00  0.0000000000000000e+00  0.0000000000000000e+00  0.0000000000000000e+00  0.0000000000000000e+00  0.0000000000000000e+00  0.0000000000000000e+00  0.0000000000000000e+00  0.0000000000000000e+00  0.0000000000000000e+00  0.0000000000000000e+00  0.0000000000000000e+00  0.0000000000000000e+00  0.0000000000000000e+00  0.0000000000000000e+00  0.0000000000000000e+00  0.0000000000000000e+00  0.0000000000000000e+00  0.0000000000000000e+00  0.0000000000000000e+00  0.0000000000000000e+00  0.0000000000000000e+00  0.0000000000000000e+00  0.0000000000000000e+00  0.0000000000000000e+00  0.0000000000000000e+00  0.0000000000000000e+00  0.0000000000000000e+00  0.0000000000000000e+00  0.0000000000000000e+00  0.0000000000000000e+00  0.0000000000000000e+00  0.0000000000000000e+00  0.0000000000000000e+00  0.0000000000000000e+00  0.0000000000000000e+00  0.0000000000000000e+00  0.0000000000000000e+00  0.0000000000000000e+00  0.0000000000000000e+00  0.0000000000000000e+00  0.0000000000000000e+00  0.0000000000000000e+00  0.0000000000000000e+00  0.0000000000000000e+00  0.0000000000000000e+00  0.0000000000000000e+00  0.0000000000000000e+00  0.0000000000000000e+00  0.0000000000000000e+00  0.0000000000000000e+00  0.0000000000000000e+00  0.0000000000000000e+00  0.0000000000000000e+00  0.0000000000000000e+00  0.0000000000000000e+00  0.0000000000000000e+00  0.0000000000000000e+00  0.0000000000000000e+00  0.0000000000000000e+00  0.0000000000000000e+00  0.0000000000000000e+00  0.0000000000000000e+00  0.0000000000000000e+00  0.0000000000000000e+00  0.0000000000000000e+00  0.0000000000000000e+00  0.0000000000000000e+00  0.0000000000000000e+00  0.0000000000000000e+00  0.0000000000000000e+00  0.0000000000000000e+00  0.0000000000000000e+00  0.0000000000000000e+00  0.0000000000000000e+00  0.0000000000000000e+00  0.0000000000000000e+00  0.0000000000000000e+00  0.0000000000000000e+00  0.0000000000000000e+00  0.0000000000000000e+00  0.0000000000000000e+00  0.0000000000000000e+00  0.0000000000000000e+00  0.0000000000000000e+00  0.0000000000000000e+00  0.0000000000000000e+00  0.0000000000000000e+00  0.0000000000000000e+00  0.0000000000000000e+00  0.0000000000000000e+00  0.0000000000000000e+00  0.0000000000000000e+00  0.0000000000000000e+00  0.0000000000000000e+00  0.0000000000000000e+00  0.0000000000000000e+00  0.0000000000000000e+00  0.0000000000000000e+00  0.0000000000000000e+00  0.0000000000000000e+00  0.0000000000000000e+00  0.0000000000000000e+00  0.0000000000000000e+00  0.0000000000000000e+00  0.0000000000000000e+00  0.0000000000000000e+00  0.0000000000000000e+00  0.0000000000000000e+00  0.0000000000000000e+00  0.0000000000000000e+00  0.0000000000000000e+00  0.0000000000000000e+00  0.0000000000000000e+00  0.0000000000000000e+00  0.0000000000000000e+00  0.0000000000000000e+00  0.0000000000000000e+00  0.0000000000000000e+00  0.0000000000000000e+00  0.0000000000000000e+00  0.0000000000000000e+00  0.0000000000000000e+00  0.0000000000000000e+00  0.0000000000000000e+00  0.0000000000000000e+00  0.0000000000000000e+00  0.0000000000000000e+00  0.0000000000000000e+00  0.0000000000000000e+00  0.0000000000000000e+00  0.0000000000000000e+00  0.0000000000000000e+00  0.0000000000000000e+00  0.0000000000000000e+00  0.0000000000000000e+00  0.0000000000000000e+00  0.0000000000000000e+00  0.0000000000000000e+00  0.0000000000000000e+00  0.0000000000000000e+00  0.0000000000000000e+00  0.0000000000000000e+00  0.0000000000000000e+00  0.0000000000000000e+00  0.0000000000000000e+00  0.0000000000000000e+00  0.0000000000000000e+00  0.0000000000000000e+00  0.0000000000000000e+00  0.0000000000000000e+00  0.0000000000000000e+00  0.0000000000000000e+00  0.0000000000000000e+00  0.0000000000000000e+00  0.0000000000000000e+00  0.0000000000000000e+00  0.0000000000000000e+00  0.0000000000000000e+00  0.0000000000000000e+00  0.0000000000000000e+00  0.0000000000000000e+00  0.0000000000000000e+00  0.0000000000000000e+00  0.0000000000000000e+00  0.0000000000000000e+00  0.0000000000000000e+00  0.0000000000000000e+00  0.0000000000000000e+00  0.0000000000000000e+00  0.0000000000000000e+00  0.0000000000000000e+00  0.0000000000000000e+00  0.0000000000000000e+00  0.0000000000000000e+00  0.0000000000000000e+00  0.0000000000000000e+00  0.0000000000000000e+00  0.0000000000000000e+00  0.0000000000000000e+00  0.0000000000000000e+00  0.0000000000000000e+00  0.0000000000000000e+00  0.0000000000000000e+00  0.0000000000000000e+00  0.0000000000000000e+00  0.0000000000000000e+00  0.0000000000000000e+00  0.0000000000000000e+00  0.0000000000000000e+00  0.0000000000000000e+00  0.0000000000000000e+00  0.0000000000000000e+00  0.0000000000000000e+00  0.0000000000000000e+00  0.0000000000000000e+00  0.0000000000000000e+00  0.0000000000000000e+00  0.0000000000000000e+00  0.0000000000000000e+00  0.0000000000000000e+00  0.0000000000000000e+00  0.0000000000000000e+00  0.0000000000000000e+00  0.0000000000000000e+00  0.0000000000000000e+00  0.0000000000000000e+00  0.0000000000000000e+00  0.0000000000000000e+00  0.0000000000000000e+00  0.0000000000000000e+00  0.0000000000000000e+00  0.0000000000000000e+00  0.0000000000000000e+00  0.0000000000000000e+00  0.0000000000000000e+00  0.0000000000000000e+00  0.0000000000000000e+00  0.0000000000000000e+00  0.0000000000000000e+00  0.0000000000000000e+00  0.0000000000000000e+00  0.0000000000000000e+00  0.0000000000000000e+00  0.0000000000000000e+00  0.0000000000000000e+00  0.0000000000000000e+00  0.0000000000000000e+00  0.0000000000000000e+00  0.0000000000000000e+00  0.0000000000000000e+00  0.0000000000000000e+00  0.0000000000000000e+00  0.0000000000000000e+00  0.0000000000000000e+00  0.0000000000000000e+00  0.0000000000000000e+00  0.0000000000000000e+00  0.0000000000000000e+00  0.0000000000000000e+00  0.0000000000000000e+00  0.0000000000000000e+00  0.0000000000000000e+00  0.0000000000000000e+00  0.0000000000000000e+00  0.0000000000000000e+00  0.0000000000000000e+00  0.0000000000000000e+00  0.0000000000000000e+00  0.0000000000000000e+00  0.0000000000000000e+00  0.0000000000000000e+00  0.0000000000000000e+00  0.0000000000000000e+00  0.0000000000000000e+00  0.0000000000000000e+00  0.0000000000000000e+00  0.0000000000000000e+00  0.0000000000000000e+00  0.0000000000000000e+00  0.0000000000000000e+00  0.0000000000000000e+00  0.0000000000000000e+00  0.0000000000000000e+00  0.0000000000000000e+00  0.0000000000000000e+00  0.0000000000000000e+00  0.0000000000000000e+00  0.0000000000000000e+00  0.0000000000000000e+00  0.0000000000000000e+00  0.0000000000000000e+00  0.0000000000000000e+00  1.7960354084789295e+152  -5.4652164276278636e+147  1.6263393347745096e+148  1.0731336793069105e+150  1.0384153617682250e+148  2.1811398162297594e+149  3.2168479588564348e+145  -4.4965216259561098e+143  3.9389586438437973e+143  1.9781425040333064e+143  5.2329149645292440e+143  2.9826689111466381e+152  1.2653522888540095e+145  7.0814975184001354e+142  -4.9525671940089292e+150  9.5305568743680403e+149  1.0328791104462465e+142  -5.6779537937202047e+142  2.2486062280493961e+140  -2.3987954628896488e+143  -5.8822792154611254e+140  1.5696429913174151e+142  -2.8021166060468086e+140  3.5385091244901084e+149  1.4642124458317264e+152  1.2836327359078663e+151  1.1267954653918604e+143  1.2867549741404752e+141  -6.3663441552306614e+142  -2.1325823437877956e+149  -2.0516388349821490e+140  -9.8486953600492128e+151  4.1394951170428483e+153  2.5577390652008600e+152  5.3593130146693695e+141  -6.0132280286267013e+139  -1.1575926669292535e+139  -3.9206749424519948e+139  8.6072296499353443e+140  -6.1487771848853765e+147  8.7861228027688358e+148  5.2129638189638064e+143  1.1920420418718824e+146  6.2144268610150227e+152  2.1878027707949331e+139  -1.1817595823445618e+139  5.3315828428104733e+138  1.1636181098637852e+139  -2.8134901011169936e+146  -1.3810198135952559e+144  -8.7193040056878701e+145  -2.1930287821195753e+145  -3.9047506610872848e+146  1.2995452196793260e+149  2.6260444763092456e+142  -2.1531427047031560e+151  1.9882505523342485e+139  3.1375131410927200e+140  -6.8310953397188785e+149  1.3539844508832898e+139  1.7990898583585166e+140  3.7204212733812608e+143  -7.1031487289563714e+138  4.4882630180533273e+138  -4.3767142146133944e+151  1.3831812075281748e+151  -1.1807407785898168e+153  -4.0873286452434896e+148  -2.0452185737288107e+152  -5.1057846686751227e+150  -7.1009635376167738e+151  3.9777840071433684e+146  2.4574027246574482e+147  -6.9079913212037406e+145  -7.0485350979604199e+145  -4.1553888775028568e+148  6.1076651089763747e+138  3.1112244892865499e+149  2.9484379049677804e+151  -1.0185417503294434e+143  -4.8927745036962749e+139  5.6328035838920544e+147  -2.7160669488031912e+139  -4.5464945382986954e+137  1.5152644349914613e+138  2.4079889031021332e+154  -4.8433453383427277e+139  2.3287420221200866e+138  3.6790876002651222e+137  7.4588924268459365e+150  -8.4666994059858561e+142  -8.4624096085424294e+138  1.1485914761513928e+145  5.0120836901725614e+137  -9.5531656752203229e+143  -4.6823251161318546e+154  -1.4159181685712283e+138  8.9264896560812699e+138  8.2258433796942022e+142  2.1400961322317508e+141  -4.8525468379034608e+144  -2.0636042255528698e+143  2.2348630198650564e+137  -3.9415944932517151e+149  1.7127524977313992e+147  -8.1025339062918967e+146  -1.6049114197422690e+149  -2.7321085549301829e+143  8.9364490220704539e+142  -3.9922709274225986e+138  -2.9343353334664116e+148  -5.5264555104505783e+140  1.6185783774020167e+137  2.2997220336446248e+146  -1.7790025915440541e+147  3.4753437605263368e+140  -2.4378278532995333e+138  5.7666385738727532e+137  7.0804741339788117e+135  -3.9903148533316561e+151  -1.2564546632678214e+150  1.0402352708049502e+141  -1.2855252142517463e+154  -4.0169612182623508e+139  -1.4062017932079975e+144  -5.8342769377149892e+143  -3.0568872243372300e+137  4.8447224137208680e+137  -4.9530931801351299e+141  1.8670657582562092e+144  -1.1082464792487994e+144  -1.2360357409949271e+143  2.5106475190808663e+146  1.4808173838870370e+148  4.6169372366525494e+144  2.6889186037756163e+142  -2.7219808063079006e+138  -7.1665601167913365e+155  1.0399782409906054e+149  4.5838571970531302e+148  -8.4278113320372152e+151  4.8753062418421284e+155  2.7338857569368545e+140  4.7066637345742264e+152  2.5590557223564399e+146  1.1224161963772865e+141  1.9126244417264308e+140  2.7627503338027458e+149  8.2425633206280057e+152  -1.5922709888856960e+143  -3.5119955414679855e+137  8.3919948808465419e+147  -8.7483643173454238e+152  -5.2300058295791809e+139  3.8531214356508040e+140  -2.3006126582841508e+138  2.9858438979718451e+136  -1.1795420892750488e+142  4.7291866113972479e+137  -1.2706181417173764e+136  1.7223250047270922e+136  -3.4220511328714067e+140  3.7887952980114092e+145  -1.6214284139554562e+138  -4.6181858412045787e+141  -7.9123392537260612e+147  -2.3471660793252228e+143  2.6105150345685234e+138  -4.9602906813308774e+136  -4.2362969824761672e+139  5.6683933054800504e+146  1.8324276271907628e+151  -5.6908243765060392e+139  -1.8257958835098926e+151  1.4539061312596598e+137  -1.9410202348897105e+147  -1.1900554409345342e+137  -5.2534610271280602e+141  -3.9205514553047233e+136  -3.3420473275743804e+147  2.9306441186381005e+140  1.5655675541555296e+149  6.2356535184083837e+144  7.6361369120982142e+153  1.8230212367864162e+135  -1.0314654568700287e+146  6.0579984782286829e+144  6.6139430743396774e+148  -9.8854707180033287e+136  4.0348049070698429e+139  -1.2808765673837705e+137  -2.5340943029225853e+152  7.8944536709005482e+136  -1.7064736174242598e+139  2.2994546376964536e+150  6.4800126751427441e+151  -3.7539880256097073e+141  -3.0731666368658337e+141  -1.8650405713632041e+148  -1.9641711438770404e+144  -2.7489082788053204e+145  6.2324308851476663e+145  4.6576717405387899e+146  4.9313060635264966e+142  -2.2627899565869237e+143  -6.6710078992823317e+140  4.8852302668258453e+140  1.3950717310500519e+150  2.5283824960330644e+139  2.3373203105521611e+141  2.2014961004859946e+141  2.8036506416965542e+150  2.1485214526374329e+150  -3.2490698796183172e+140  -4.9444937979896549e+136  -9.2425809943248029e+142  1.4967611947606427e+150  -1.8622956938570102e+136  -1.2943213932174296e+144  -6.1954950756286143e+143  3.7572140693459636e+139  -1.1393609367668099e+145  -5.7331585454351252e+149  5.9003155637829596e+144  6.3596906612852891e+144  2.7234531772387227e+137  -7.2606089256105530e+141  -9.0936347682205324e+136  -1.0933226867907741e+142  -1.7312101961219804e+136  -1.4415894452011843e+137  5.4622796634059740e+137  -5.7141734804075867e+137  -1.8735554475148746e+140  1.0761867814306068e+138  -3.0813206949967906e+147  -6.7324382167995410e+144  -1.1160039974402474e+140  -3.1016202003174319e+139  2.0552602892436533e+150  2.1889948963157993e+151  1.6604721798163937e+145  1.5559480577539079e+145  6.5173549109908355e+137  1.3764037949373401e+148  3.0438933144696021e+140  -2.4336479612670936e+137  -3.6714253119154030e+136  3.0027489077893491e+149  -3.0603513456102242e+146  -7.5133179450038734e+145  4.7302786006344399e+145  5.4698117231010323e+152  5.1742482199353395e+151  -4.8707060112754843e+138  -1.5971468297796078e+151  3.4411725616695156e+143  -4.0979675665023573e+147  -1.3662900771762008e+137  3.9974109042422170e+136  -5.4859502905294715e+136  -3.4661634678106660e+143  -6.6220369903949688e+140  2.9331682000174921e+148  -4.5694399293183430e+149  7.9825539755581490e+150  1.3139789459771847e+140  4.7138255791237057e+137  4.3251141991729277e+136  -6.0192691301138785e+145  1.5636687629036325e+134  -1.1834790328847861e+152  9.6327348678268286e+149  -1.1879048214149082e+142  8.3349250171662717e+139  8.4195778175957934e+141  3.9247941622145977e+153  -2.7161903569846997e+150  7.7339437806402239e+148  -5.1857829768809542e+147  1.7806532173994776e+149  -1.9894885566597884e+150  9.3624326200498172e+151  5.2629377636034127e+146  -7.1184466879889352e+143  3.2606414202607440e+141  4.3902947494220404e+154  -1.5123619321362612e+137  1.3617773169580314e+140  3.7265223104533374e+150  9.9441228346672715e+152  -3.3196583767821184e+149  1.2346961188466772e+145  7.0137775945934929e+145  5.4542808002953894e+154  2.4987313980282189e+137  3.1265473384170237e+150  -8.0261835132332303e+136  -2.0764610185284154e+136  -3.5161113658012111e+136  -6.4205223353039636e+150  1.1466238686959813e+150  7.5786655105945971e+152  1.8635233790876734e+153  8.7375810154756702e+145  1.4048486908266648e+143  6.9724680431647432e+141  -2.0046323395900145e+146  -7.4990830164530503e+146  2.6975644531425652e+144  6.0478447136697062e+148  -4.2486630840052493e+145  -3.3071163618883624e+151  -7.5593393268985902e+140  -1.0566636952168721e+151  1.8344965192058540e+150  -1.5207160619902813e+147  3.6357234897066636e+141  -1.4849264468040360e+142  -2.7648978316949973e+137  9.8818367764169128e+140  1.1754241558264668e+140  -6.9838895411143029e+137  -1.6459591568207005e+151  9.3888758446380685e+136  -1.1901978460102190e+137  4.9539292313947782e+138  2.2406159146795750e+150  9.8219944679350754e+147  7.4409431631590674e+150  5.6587856205624639e+136  1.4611443773226786e+142  -7.4662814067276062e+143  -1.3136527719211489e+149  2.8137595122495187e+149  9.8025669496990139e+141  -1.2549637379876366e+148  1.9982000023873792e+148  3.7077715246836218e+155  7.8848441504100010e+141  7.3924538622922703e+140  -1.0577644589092590e+147  -1.1481934210513518e+138  -3.3748825071239207e+138  7.4320848963716094e+144  -3.4683299059544264e+136  -6.7955161759001900e+139  -8.2420602104064256e+142  2.6622434966970830e+135  -1.2080347904642871e+143  1.3424273461790350e+144  8.7492945286730370e+136  1.9400685706688134e+139  -1.8775510557262026e+136  3.9799932914194606e+139  -1.7208458762650682e+140  -7.3023630369610758e+144  2.7744868858349838e+153  -1.0691804100073029e+138  -1.9760466456614466e+151  2.4173110284188349e+152  -8.3772798140293087e+140  -9.8761733747509409e+136  5.4134039177931149e+145  7.2696696802190371e+139  8.6199717627532590e+153  -1.0363889847734513e+139  -4.6110146012609334e+141  4.0349497443616554e+151  -9.1318643127315551e+138  -2.2759633297041444e+133  2.8412990925394802e+136  1.1078073662100714e+141  2.5684687900691206e+149  -5.6764478246016816e+148  1.0935022938625270e+143  2.1756759199490582e+140  -1.4766963714041181e+153  5.4939032808485844e+144  -1.4691594648507047e+137  -4.0325852723525962e+147  -2.6641741395599811e+136  8.4547058610515304e+138  -8.0377929192680823e+147  4.6606180905965811e+134  3.3891794350796941e+154  -7.7284612905220440e+136  8.1889232247217138e+139  4.2651904557026257e+135  6.1147984792757876e+148  -7.2129272964911369e+144  -6.0727736742133095e+141  -8.2657771651744060e+146  -2.3622622803179275e+135  3.8286333174941417e+140  2.3637390383892289e+149  3.5911147399229445e+138  -1.3074902376007717e+147  -4.2345891540163952e+142  1.2195495133868153e+135  6.9544209626539075e+135  4.9141454346536107e+147  2.4182168934733507e+138  -2.2826178627460775e+149  1.3082971206651272e+141  1.8324463318851644e+150  1.3703180276920968e+144  -9.0349411864675146e+136  -3.1894777015023545e+138  9.3560875852034099e+139  9.3188839393145347e+138  3.1601624976172386e+139  1.0357805644598335e+151  -4.4157299520663226e+151  2.2540884099563783e+155  1.0482832140924571e+151  -1.8267897690648737e+140  4.4121006685200904e+153  -3.2623636277505165e+150  -6.4260666140126495e+139  -4.0570908727955536e+134  -3.0144903002217476e+136  -2.7625357589665792e+144  2.0223098691515985e+141  -9.6151216259027680e+141  -6.6513663128714838e+149  -1.1811739639583471e+143  -5.3322535551527879e+136  1.8010878375521439e+135  2.7662257259593095e+137  1.1654796121998688e+144  -1.2520868812883131e+139  1.1264165822235447e+143  4.9595081782918300e+138  2.6653913634798915e+138  -2.4391121891338065e+139  2.5624925106385848e+144  5.8486061971682233e+138  1.3162888063921802e+147  -2.3790832289385650e+146  9.7053013655396064e+146  -2.0063231319998746e+145  -9.2205080224993625e+146  9.1229810175589194e+147  3.9699281796876688e+139  1.6214021030441904e+151  5.8973775370050650e+140  -3.4243811381697072e+153  8.3005504197171400e+143  6.4738683435044501e+148  1.5856421581334402e+147  7.8202906112623719e+154  3.5828084888657112e+139  -5.0478439775455096e+136  6.2377858264568851e+138  2.0962415513683220e+152  6.9688524840445294e+142  -5.3561018475516956e+147  -1.7177029899405378e+147  2.3138293926772738e+138  -1.2579157250501463e+145  -3.0625002591090760e+136  -5.3865755549196397e+153  -5.8567174678801808e+153  5.7309030582221535e+151  2.5282449506736106e+140  -2.6054264706141876e+139  2.9128665425304111e+138  6.9030917523746122e+142  7.9753194492511813e+144  6.0364751844490458e+146  7.9845475642824538e+138  -1.8409364102837010e+148  1.1059881884631299e+146  -1.1601867382177354e+140  -1.0750299517694292e+154  -2.3983598492121841e+142  -1.0372224959609655e+147  -6.4297662513983728e+143  -1.5288167405766499e+145  -2.9271087559066961e+143  -1.3513277053712986e+140  1.4874101361121546e+136  -3.1472836218363345e+139  8.6542005123552219e+135  1.70944781