<?xml version="1.0"?>
<VTKFile type="UnstructuredGrid"  version="0.1"  >
<UnstructuredGrid>
<Piece  NumberOfPoints="20054" NumberOfCells="39478">
<Points>
<DataArray  type="Float64"  NumberOfComponents="3"  format="ascii">1 0 0  0.9997998037428526 0.02000880895389431 0  0.9991992951284931 0.04000960653046352 0  0.9981987145960756 0.05999438456007805 0  0.9967984627705549 0.07995514128721501 0  0.9949991003022806 0.09988388457430118 0  0.9928013476425149 0.1197726351017051 0  0.9902060847549715 0.139613429562597 0  0.987214350763483 0.1593983238513969 0  0.9838273435359444 0.1791193962445356 0  0.9800464192046954 0.198768750572253 0  0.9758730916235354 0.2183385193801655 0  0.9713090317615876 0.237820867079336 0  0.9663560670342555 0.2572079930835849 0  0.9610161805715396 0.2764921349327862 0  0.9552915104240066 0.2956655714008991 0  0.9491843487067304 0.3147206255874884 0  0.9426971406815462 0.3336496679914983 0  0.9358324837779861 0.3524451195660473 0  0.9285931265532873 0.3710994547530225 0  0.9209819675918909 0.3896052044962556 0  0.9130020543448703 0.4079549592320781 0  0.9046565819097542 0.4261413718560547 0  0.8959488917512338 0.4441571606647087 0  0.8868824703632656 0.4619951122710622 0  0.8774609478731046 0.4796480844928215 0  0.8676880965878291 0.4971090092120542 0  0.8575678294839372 0.5143708952052096 0  0.8471041986406199 0.5314268309423539 0  0.8363013936173391 0.5482699873544935 0  0.8251637397763597 0.5648936205678837 0  0.8136956965509062 0.5812910746042258 0  0.8019018556596399 0.5974557840456699 0  0.7897869392681683 0.6133812766635599 0  0.777355798098326 0.6290611760098652 0  0.7646134094859813 0.6444892039702628 0  0.7515648753881492 0.6596591832778468 0  0.7382154203402046 0.6745650399864606 0  0.7245703893640189 0.6892008059026586 0  0.7106352458278521 0.7035606209753273 0  0.6964155692588616 0.7176387356420051 0  0.6819170531091018 0.7314295131309636 0  0.6671455024759069 0.7449274317181303 0  0.6521068317775753 0.7581270869379442 0  0.6368070623852795 0.7710231937472638 0  0.6212523202121545 0.7836105886414595 0  0.6054488332605282 0.795884231721841 0  0.5894029291282759 0.8078392087135958 0  0.5731210324752972 0.8194707329334278 0  0.5566096624511305 0.8307741472061095 0  0.5398754300847343 0.8417449257291802 0  0.5229250356374803 0.8523786758850435 0  0.5057652659204196 0.8626711399997378 0  0.4884029915768944 0.8726181970476778 0  0.4708451643315825 0.8822158643016828 0  0.45309881420708 0.8914602989276292 0  0.4351710467091336 0.9003477995230937 0  0.4170690399816468 0.9088748075993677 0  0.398800041932607 0.9170379090062476 0  0.3803713673320772 0.9248338352990368 0  0.3617903948834157 0.9322594650472057 0  0.3430645642688987 0.9393118250841893 0  0.3242013731709288 0.9459880916978206 0  0.3052083742700172 0.952285591760924 0  0.2860931722207478 0.9582018038016155 0  0.2668634206069304 0.963734359012881 0  0.2475268188771628 0.9688810422010291 0  0.2280911092620296 0.9736397926726377 0  0.2085640736741707 0.9780087050596407 0  0.1889535305924618 0.9819860300822225 0  0.1692673319315541 0.9855701752492174 0  0.1495133598980264 0.9887597054957302 0  0.1296995238344084 0.9915533437577263 0  0.1098337570523395 0.9939499714833577 0  0.08992401365612977 0.9959486290808237 0  0.06997826535799723 0.9975485163025836 0  0.05000449828625179 0.9987489925657699 0  0.03001070978771124 0.9995495772086734 0  0.01000490522562346 0.9999499496831961 0  -0.01000490522562333 0.9999499496831961 0  -0.03001070978771133 0.9995495772086734 0  -0.05000449828625144 0.9987489925657699 0  -0.06997826535799688 0.9975485163025836 0  -0.08992401365612987 0.9959486290808237 0  -0.1098337570523394 0.9939499714833577 0  -0.1296995238344082 0.9915533437577263 0  -0.1495133598980262 0.9887597054957303 0  -0.1692673319315537 0.9855701752492174 0  -0.1889535305924614 0.9819860300822226 0  -0.2085640736741705 0.9780087050596407 0  -0.2280911092620295 0.9736397926726377 0  -0.2475268188771627 0.9688810422010291 0  -0.2668634206069302 0.9637343590128811 0  -0.2860931722207475 0.9582018038016156 0  -0.3052083742700173 0.9522855917609239 0  -0.3242013731709289 0.9459880916978205 0  -0.3430645642688986 0.9393118250841894 0  -0.3617903948834154 0.9322594650472058 0  -0.380371367332077 0.924833835299037 0  -0.3988000419326071 0.9170379090062476 0  -0.4170690399816465 0.9088748075993678 0  -0.4351710467091335 0.9003477995230939 0  -0.4530988142070799 0.8914602989276292 0  -0.4708451643315824 0.8822158643016829 0  -0.4884029915768945 0.8726181970476778 0  -0.5057652659204197 0.8626711399997378 0  -0.5229250356374801 0.8523786758850437 0  -0.5398754300847342 0.8417449257291804 0  -0.5566096624511303 0.8307741472061098 0  -0.5731210324752971 0.8194707329334279 0  -0.589402929128276 0.8078392087135957 0  -0.6054488332605281 0.7958842317218411 0  -0.6212523202121542 0.7836105886414597 0  -0.6368070623852793 0.7710231937472639 0  -0.652106831777575 0.7581270869379444 0  -0.6671455024759069 0.7449274317181304 0  -0.6819170531091018 0.7314295131309636 0  -0.6964155692588616 0.7176387356420052 0  -0.7106352458278521 0.7035606209753273 0  -0.7245703893640187 0.6892008059026588 0  -0.7382154203402043 0.6745650399864608 0  -0.751564875388149 0.6596591832778469 0  -0.7646134094859813 0.6444892039702628 0  -0.7773557980983258 0.6290611760098654 0  -0.7897869392681683 0.6133812766635599 0  -0.8019018556596398 0.59745578404567 0  -0.8136956965509062 0.5812910746042258 0  -0.8251637397763595 0.5648936205678839 0  -0.836301393617339 0.5482699873544935 0  -0.8471041986406197 0.5314268309423542 0  -0.8575678294839372 0.5143708952052097 0  -0.8676880965878292 0.497109009212054 0  -0.8774609478731045 0.4796480844928216 0  -0.8868824703632656 0.4619951122710621 0  -0.8959488917512338 0.4441571606647088 0  -0.904656581909754 0.426141371856055 0  -0.9130020543448703 0.4079549592320783 0  -0.920981967591891 0.3896052044962555 0  -0.9285931265532872 0.3710994547530226 0  -0.9358324837779861 0.3524451195660473 0  -0.9426971406815462 0.3336496679914984 0  -0.9491843487067303 0.3147206255874888 0  -0.9552915104240065 0.2956655714008993 0  -0.9610161805715396 0.2764921349327862 0  -0.9663560670342555 0.2572079930835851 0  -0.9713090317615876 0.2378208670793361 0  -0.9758730916235353 0.2183385193801658 0  -0.9800464192046954 0.198768750572253 0  -0.9838273435359444 0.1791193962445354 0  -0.987214350763483 0.159398323851397 0  -0.9902060847549714 0.1396134295625972 0  -0.9928013476425149 0.1197726351017052 0  -0.9949991003022804 0.09988388457430147 0  -0.9967984627705549 0.07995514128721509 0  -0.9981987145960756 0.05999438456007793 0  -0.9991992951284931 0.04000960653046362 0  -0.9997998037428526 0.02000880895389464 0  -1 1.224646799147353e-16 0  -0.9997998037428526 -0.0200088089538944 0  -0.9991992951284931 -0.04000960653046338 0  -0.9981987145960756 -0.05999438456007812 0  -0.9967984627705549 -0.07995514128721484 0  -0.9949991003022806 -0.09988388457430078 0  -0.9928013476425149 -0.1197726351017049 0  -0.9902060847549715 -0.1396134295625965 0  -0.9872143507634831 -0.1593983238513963 0  -0.9838273435359444 -0.1791193962445356 0  -0.9800464192046953 -0.1987687505722532 0  -0.9758730916235354 -0.2183385193801655 0  -0.9713090317615876 -0.2378208670793363 0  -0.9663560670342556 -0.2572079930835848 0  -0.9610161805715396 -0.276492134932786 0  -0.9552915104240066 -0.2956655714008991 0  -0.9491843487067305 -0.3147206255874881 0  -0.9426971406815464 -0.3336496679914978 0  -0.9358324837779862 -0.3524451195660471 0  -0.9285931265532875 -0.371099454753022 0  -0.9209819675918909 -0.3896052044962557 0  -0.9130020543448704 -0.407954959232078 0  -0.9046565819097541 -0.4261413718560548 0  -0.8959488917512338 -0.4441571606647086 0  -0.8868824703632655 -0.4619951122710623 0  -0.8774609478731046 -0.4796480844928214 0  -0.8676880965878293 -0.4971090092120538 0  -0.8575678294839373 -0.5143708952052095 0  -0.84710419864062 -0.5314268309423537 0  -0.8363013936173395 -0.5482699873544929 0  -0.8251637397763596 -0.5648936205678838 0  -0.8136956965509061 -0.5812910746042259 0  -0.8019018556596399 -0.5974557840456699 0  -0.7897869392681682 -0.61338127666356 0  -0.777355798098326 -0.6290611760098652 0  -0.7646134094859816 -0.6444892039702625 0  -0.7515648753881492 -0.6596591832778468 0  -0.7382154203402048 -0.6745650399864603 0  -0.7245703893640192 -0.6892008059026583 0  -0.7106352458278522 -0.7035606209753272 0  -0.6964155692588621 -0.7176387356420046 0  -0.6819170531091017 -0.7314295131309637 0  -0.667145502475907 -0.7449274317181303 0  -0.6521068317775756 -0.758127086937944 0  -0.6368070623852792 -0.7710231937472641 0  -0.6212523202121544 -0.7836105886414596 0  -0.6054488332605283 -0.795884231721841 0  -0.5894029291282762 -0.8078392087135956 0  -0.5731210324752977 -0.8194707329334274 0  -0.5566096624511304 -0.8307741472061095 0  -0.5398754300847344 -0.8417449257291802 0  -0.5229250356374798 -0.8523786758850437 0  -0.5057652659204195 -0.8626711399997379 0  -0.4884029915768943 -0.872618197047678 0  -0.4708451643315825 -0.8822158643016828 0  -0.4530988142070805 -0.8914602989276289 0  -0.4351710467091333 -0.900347799523094 0  -0.4170690399816467 -0.9088748075993677 0  -0.3988000419326073 -0.9170379090062475 0  -0.3803713673320777 -0.9248338352990366 0  -0.3617903948834162 -0.9322594650472055 0  -0.3430645642688988 -0.9393118250841893 0  -0.3242013731709283 -0.9459880916978207 0  -0.3052083742700169 -0.9522855917609241 0  -0.2860931722207477 -0.9582018038016155 0  -0.2668634206069305 -0.963734359012881 0  -0.2475268188771631 -0.968881042201029 0  -0.2280911092620301 -0.9736397926726376 0  -0.2085640736741706 -0.9780087050596407 0  -0.1889535305924619 -0.9819860300822225 0  -0.1692673319315544 -0.9855701752492173 0  -0.1495133598980269 -0.9887597054957302 0  -0.1296995238344092 -0.9915533437577262 0  -0.1098337570523396 -0.9939499714833577 0  -0.08992401365612945 -0.9959486290808237 0  -0.06997826535799691 -0.9975485163025836 0  -0.05000449828625168 -0.9987489925657699 0  -0.030010709787
[...]
<PointData  Scalars="Displacement"> 
<DataArray  type="Float64"  Name="Displacement"  format="ascii">0.0000000000000000e+00  0.0000000000000000e+00  0.0000000000000000e+00  0.0000000000000000e+00  0.0000000000000000e+00  0.0000000000000000e+00  0.0000000000000000e+00  0.0000000000000000e+00  0.0000000000000000e+00  0.0000000000000000e+00  0.0000000000000000e+00  0.0000000000000000e+00  0.0000000000000000e+00  0.0000000000000000e+00  0.0000000000000000e+00  0.0000000000000000e+00  0.0000000000000000e+00  0.0000000000000000e+00  0.0000000000000000e+00  0.0000000000000000e+00  0.0000000000000000e+00  0.0000000000000000e+00  0.0000000000000000e+00  0.0000000000000000e+00  0.0000000000000000e+00  0.0000000000000000e+00  0.0000000000000000e+00  0.0000000000000000e+00  0.0000000000000000e+00  0.0000000000000000e+00  0.0000000000000000e+00  0.0000000000000000e+00  0.0000000000000000e+00  0.0000000000000000e+00  0.0000000000000000e+00  0.0000000000000000e+00  0.0000000000000000e+00  0.0000000000000000e+00  0.0000000000000000e+00  0.0000000000000000e+00  0.0000000000000000e+00  0.0000000000000000e+00  0.0000000000000000e+00  0.0000000000000000e+00  0.0000000000000000e+00  0.0000000000000000e+00  0.0000000000000000e+00  0.0000000000000000e+00  0.0000000000000000e+00  0.0000000000000000e+00  0.0000000000000000e+00  0.0000000000000000e+00  0.0000000000000000e+00  0.0000000000000000e+00  0.0000000000000000e+00  0.0000000000000000e+00  0.0000000000000000e+00  0.0000000000000000e+00  0.0000000000000000e+00  0.0000000000000000e+00  0.0000000000000000e+00  0.0000000000000000e+00  0.0000000000000000e+00  0.0000000000000000e+00  0.0000000000000000e+00  0.0000000000000000e+00  0.0000000000000000e+00  0.0000000000000000e+00  0.0000000000000000e+00  0.0000000000000000e+00  0.0000000000000000e+00  0.0000000000000000e+00  0.0000000000000000e+00  0.0000000000000000e+00  0.0000000000000000e+00  0.0000000000000000e+00  0.0000000000000000e+00  0.0000000000000000e+00  0.0000000000000000e+00  0.0000000000000000e+00  0.0000000000000000e+00  0.0000000000000000e+00  0.0000000000000000e+00  0.0000000000000000e+00  0.0000000000000000e+00  0.0000000000000000e+00  0.0000000000000000e+00  0.0000000000000000e+00  0.0000000000000000e+00  0.0000000000000000e+00  0.0000000000000000e+00  0.0000000000000000e+00  0.0000000000000000e+00  0.0000000000000000e+00  0.0000000000000000e+00  0.0000000000000000e+00  0.0000000000000000e+00  0.0000000000000000e+00  0.0000000000000000e+00  0.0000000000000000e+00  0.0000000000000000e+00  0.0000000000000000e+00  0.0000000000000000e+00  0.0000000000000000e+00  0.0000000000000000e+00  0.0000000000000000e+00  0.0000000000000000e+00  0.0000000000000000e+00  0.0000000000000000e+00  0.0000000000000000e+00  0.0000000000000000e+00  0.0000000000000000e+00  0.0000000000000000e+00  0.0000000000000000e+00  0.0000000000000000e+00  0.0000000000000000e+00  0.0000000000000000e+00  0.0000000000000000e+00  0.0000000000000000e+00  0.0000000000000000e+00  0.0000000000000000e+00  0.0000000000000000e+00  0.0000000000000000e+00  0.0000000000000000e+00  0.0000000000000000e+00  0.0000000000000000e+00  0.0000000000000000e+00  0.0000000000000000e+00  0.0000000000000000e+00  0.0000000000000000e+00  0.0000000000000000e+00  0.0000000000000000e+00  0.0000000000000000e+00  0.0000000000000000e+00  0.0000000000000000e+00  0.0000000000000000e+00  0.0000000000000000e+00  0.0000000000000000e+00  0.0000000000000000e+00  0.0000000000000000e+00  0.0000000000000000e+00  0.0000000000000000e+00  0.0000000000000000e+00  0.0000000000000000e+00  0.0000000000000000e+00  0.0000000000000000e+00  0.0000000000000000e+00  0.0000000000000000e+00  0.0000000000000000e+00  0.0000000000000000e+00  0.0000000000000000e+00  0.0000000000000000e+00  0.0000000000000000e+00  0.0000000000000000e+00  0.0000000000000000e+00  0.0000000000000000e+00  0.0000000000000000e+00  0.0000000000000000e+00  0.0000000000000000e+00  0.0000000000000000e+00  0.0000000000000000e+00  0.0000000000000000e+00  0.0000000000000000e+00  0.0000000000000000e+00  0.0000000000000000e+00  0.0000000000000000e+00  0.0000000000000000e+00  0.0000000000000000e+00  0.0000000000000000e+00  0.0000000000000000e+00  0.0000000000000000e+00  0.0000000000000000e+00  0.0000000000000000e+00  0.0000000000000000e+00  0.0000000000000000e+00  0.0000000000000000e+00  0.0000000000000000e+00  0.0000000000000000e+00  0.0000000000000000e+00  0.0000000000000000e+00  0.0000000000000000e+00  0.0000000000000000e+00  0.0000000000000000e+00  0.0000000000000000e+00  0.0000000000000000e+00  0.0000000000000000e+00  0.0000000000000000e+00  0.0000000000000000e+00  0.0000000000000000e+00  0.0000000000000000e+00  0.0000000000000000e+00  0.0000000000000000e+00  0.0000000000000000e+00  0.0000000000000000e+00  0.0000000000000000e+00  0.0000000000000000e+00  0.0000000000000000e+00  0.0000000000000000e+00  0.0000000000000000e+00  0.0000000000000000e+00  0.0000000000000000e+00  0.0000000000000000e+00  0.0000000000000000e+00  0.0000000000000000e+00  0.0000000000000000e+00  0.0000000000000000e+00  0.0000000000000000e+00  0.0000000000000000e+00  0.0000000000000000e+00  0.0000000000000000e+00  0.0000000000000000e+00  0.0000000000000000e+00  0.0000000000000000e+00  0.0000000000000000e+00  0.0000000000000000e+00  0.0000000000000000e+00  0.0000000000000000e+00  0.0000000000000000e+00  0.0000000000000000e+00  0.0000000000000000e+00  0.0000000000000000e+00  0.0000000000000000e+00  0.0000000000000000e+00  0.0000000000000000e+00  0.0000000000000000e+00  0.0000000000000000e+00  0.0000000000000000e+00  0.0000000000000000e+00  0.0000000000000000e+00  0.0000000000000000e+00  0.0000000000000000e+00  0.0000000000000000e+00  0.0000000000000000e+00  0.0000000000000000e+00  0.0000000000000000e+00  0.0000000000000000e+00  0.0000000000000000e+00  0.0000000000000000e+00  0.0000000000000000e+00  0.0000000000000000e+00  0.0000000000000000e+00  0.0000000000000000e+00  0.0000000000000000e+00  0.0000000000000000e+00  0.0000000000000000e+00  0.0000000000000000e+00  0.0000000000000000e+00  0.0000000000000000e+00  0.0000000000000000e+00  0.0000000000000000e+00  0.0000000000000000e+00  0.0000000000000000e+00  0.0000000000000000e+00  0.0000000000000000e+00  0.0000000000000000e+00  0.0000000000000000e+00  0.0000000000000000e+00  0.0000000000000000e+00  0.0000000000000000e+00  0.0000000000000000e+00  0.0000000000000000e+00  0.0000000000000000e+00  0.0000000000000000e+00  0.0000000000000000e+00  0.0000000000000000e+00  0.0000000000000000e+00  0.0000000000000000e+00  0.0000000000000000e+00  0.0000000000000000e+00  0.0000000000000000e+00  0.0000000000000000e+00  0.0000000000000000e+00  0.0000000000000000e+00  0.0000000000000000e+00  0.0000000000000000e+00  0.0000000000000000e+00  0.0000000000000000e+00  0.0000000000000000e+00  0.0000000000000000e+00  0.0000000000000000e+00  0.0000000000000000e+00  0.0000000000000000e+00  0.0000000000000000e+00  0.0000000000000000e+00  0.0000000000000000e+00  0.0000000000000000e+00  0.0000000000000000e+00  0.0000000000000000e+00  0.0000000000000000e+00  0.0000000000000000e+00  0.0000000000000000e+00  0.0000000000000000e+00  0.0000000000000000e+00  0.0000000000000000e+00  0.0000000000000000e+00  0.0000000000000000e+00  0.0000000000000000e+00  0.0000000000000000e+00  0.0000000000000000e+00  0.0000000000000000e+00  0.0000000000000000e+00  0.0000000000000000e+00  0.0000000000000000e+00  0.0000000000000000e+00  0.0000000000000000e+00  0.0000000000000000e+00  0.0000000000000000e+00  0.0000000000000000e+00  0.0000000000000000e+00  0.0000000000000000e+00  0.0000000000000000e+00  0.0000000000000000e+00  0.0000000000000000e+00  0.0000000000000000e+00  -3.9198995285096033e-01  5.1068384143353434e-04  3.1278615372125497e-04  6.5868887237492289e-04  3.4752285131088058e-04  8.1775387469203641e-04  4.8296318147855499e-04  2.7355021786156858e-04  1.1281011973324224e-04  5.7935868152184946e-04  2.6135490164837564e-04  -2.4862334775091876e-02  1.8279848591703696e-04  4.3742774241667512e-04  -4.2514794760681811e-02  -5.7823555373461531e-02  4.4316974572297842e-04  3.4178969146369192e-04  1.9395645551829911e-05  2.5162785286175261e-04  2.5857092872474447e-04  1.9905800350561312e-04  3.9683843285690971e-04  1.0880536725207182e-03  1.1322709231971692e-03  -1.4511842650305096e-01  1.4574788300743963e-04  2.9476970171048145e-04  3.3038415447818521e-04  2.6095285051177164e-05  4.3725917785213475e-05  -8.2097582964518717e-02  -2.2391079865973110e-01  6.1891419857184715e-04  1.9178278040243003e-04  1.4731670418346386e-04  -1.1964464543422266e-04  2.1928782304753204e-04  2.5013084842725488e-04  5.8177283017761690e-04  5.8984491271643418e-04  6.2400459955610230e-04  5.5616551042644055e-04  -2.5695799198975311e-01  3.6213510537726803e-04  8.4335714643534452e-05  1.9942145885212337e-04  1.0493397040729322e-04  4.0571575092039977e-04  1.4299687053650814e-04  1.9965273524980389e-04  5.7167630614023005e-04  6.5179406611300486e-04  1.0079197970891238e-03  1.6022348280487575e-04  -2.6474429111055497e-01  5.3867205225965734e-04  -1.8149616936516903e-05  -7.1792286316994629e-03  2.3655386083110252e-04  3.6809041004532626e-04  7.8058364035694797e-04  1.2063089614286536e-04  3.6456325703057858e-05  -6.0758928620382154e-03  -1.5288426012483011e-01  9.7146917886626813e-04  9.0213178139108142e-04  1.5472841790804268e-03  -2.7332134858960233e-01  -7.8526960636415930e-03  3.7962776799244541e-04  6.0878777582000791e-04  7.8022353280991221e-04  7.0121281822454996e-04  -4.0026672033112730e-04  -6.9184235380175603e-05  4.0950351662022066e-05  -8.5277091632330855e-04  4.4937901087488787e-04  2.5927018827250612e-04  1.1227422469433977e-03  9.1982868262397826e-05  1.4352423261702351e-04  -1.8746253403759995e-04  -2.7872812063380636e-01  1.4273834476106735e-04  3.2895220846638969e-04  1.5107320883269465e-04  1.3853013157508315e-03  4.0046180787440291e-04  1.0209400110742888e-04  8.0663448997428519e-04  1.8938383454000719e-04  4.0588430728094767e-04  -2.6119882501422581e-01  4.5567771805365504e-04  2.0837250326946982e-04  5.7812173591217421e-04  6.1865680706310123e-04  2.7255557588922781e-04  2.4697457252955860e-04  3.5325403678328772e-05  9.5420451734645523e-04  7.9266218779784365e-04  1.1956935229301830e-04  1.2271009328589768e-03  2.3936895583707486e-04  2.4605701426642137e-04  7.3577527946614097e-05  1.0220754856892023e-03  1.7892785782062698e-04  3.1378551460452481e-04  1.1979030830101291e-04  8.8169223829019056e-05  3.6985801971093160e-04  3.2269544584733476e-04  1.9024943243780876e-04  2.7909109635679480e-04  -2.7395214167813980e-01  7.2120746383558135e-04  2.6242778063196518e-04  -5.1736138108145681e-02  -5.2666592763084128e-05  3.9981920944162554e-04  6.7346389144019110e-04  1.1297559229588509e-04  1.1688076329075161e-04  2.2315863924124251e-04  1.9013274571565020e-04  5.8973959174943964e-04  2.1699717813395409e-04  6.0080572952225884e-04  1.4906170275080525e-04  3.5491278651781337e-04  2.7260204982430380e-04  4.3306859170186075e-05  -7.1189476405537438e-02  5.0040886254837792e-04  -1.2067513077334585e-02  -3.0622963294354427e-01  -7.2763191949780925e-02  6.0645521438854294e-04  5.0151338014026701e-04  3.2361669607404588e-04  2.6546733176629675e-04  3.4507323333073922e-04  -3.2800730120751208e-02  -2.5488729874796162e-01  4.2634294663915901e-04  -7.6586238837585466e-05  2.2024469808020256e-04  1.2644381036109051e-03  2.1081833908389059e-04  5.9240793495415223e-05  1.5515460450317813e-04  -2.4498806152180219e-05  4.6365613568170953e-04  -1.3334552455243291e-06  8.0090055309946199e-05  -3.5821293931747805e-05  5.2698471142543287e-04  2.9853740730872313e-04  1.3374941913412008e-04  2.2679514333001858e-04  7.1150489462771887e-04  4.6847716090417613e-04  1.0857448676163132e-04  6.8145776840824109e-05  5.2320518268240978e-04  6.9573241014861940e-04  -3.1625281828921314e-01  7.2385417480484460e-05  1.5779870364881282e-03  -6.3931786501420030e-05  5.4549095571884384e-04  -2.0931275231570519e-04  5.0993188146883623e-05  -9.3310836274762167e-06  7.1780126740469236e-04  -5.6126025294220410e-05  6.6970917648742200e-04  3.0460682928198809e-04  -1.7045001907792051e-01  2.7756181737683284e-04  4.5382130961946898e-04  7.8414628706256837e-04  4.6498569741653946e-04  2.2227028992229797e-04  4.0752303017354223e-04  -6.5912614496476410e-05  -2.5524835007530822e-01  7.4495689598161286e-05  -1.6506135697451520e-05  6.7595902571942850e-04  -3.2647767035125569e-03  1.1812150279127781e-04  -2.1842864214874707e-05  9.2147039874690526e-04  3.0977265175906169e-04  3.3421077337274918e-04  1.0024388046723093e-03  4.8694383815436751e-04  4.9443060526837884e-04  1.9619060721110941e-04  1.2470549793996993e-04  1.2069953737030166e-04  -1.1942784495010057e-01  7.8313773816044736e-05  3.4565871484557839e-04  -5.9834600374567481e-05  -2.4231291688292483e-01  -3.2169110911969256e-01  1.7933238221991252e-04  1.0410461101906934e-04  1.4852105370082063e-04  6.0429322044663707e-04  -2.7450828114177476e-04  2.2657302018001859e-05  5.8554108971701374e-04  -1.6861594866238388e-05  5.0716660763313627e-04  5.4613735442947582e-04  2.6860305217482627e-04  3.8379731080215632e-04  -5.0033530608492172e-06  3.3711068360183470e-04  4.0168245775457114e-05  8.3457798587520079e-04  -6.9918145607666621e-05  1.2122150149576403e-04  6.8662115172219663e-05  3.0643335071948314e-05  1.5820334644383766e-04  2.0062912466934752e-05  7.9755018428282279e-04  2.8906125039196136e-04  9.9920012295286512e-05  1.5519663811656319e-04  -9.1852761717670678e-02  -1.3949117032350532e-02  4.0626728477677099e-04  3.9580361945611023e-04  -1.9559582106730360e-04  8.0984180754055998e-04  8.7326261714004605e-05  1.5495271340606329e-04  4.1060744117678538e-04  4.7563950186777702e-04  5.3959164167335732e-04  3.9133418409132754e-04  6.3491780844686352e-04  -5.1387348762114704e-02  -3.2070537575548336e-01  3.6432252056142837e-04  5.4758151348552407e-04  2.1562433688447020e-04  4.9588534156320746e-04  1.0277777884467832e-04  1.1910669607133156e-04  -3.9959516560689644e-05  3.8667379798913492e-04  4.8250452811339414e-04  2.6759208966896386e-04  7.9861579652276845e-04  7.9848586913502679e-04  2.3539766319392980e-04  1.4325295904399520e-04  2.0938536117503904e-04  5.1438850737887140e-04  6.6980265821407013e-05  6.3686681127566517e-04  2.8685985157839681e-04  3.8094868068673033e-04  2.8682699019024697e-04  5.3696901445450572e-04  -1.7760759877023730e-03  -5.4499491139604729e-03  8.5608002651673093e-04  -8.2603113469333794e-04  -1.0279187726119136e-02  -1.5359084771682355e-01  -1.9296023062024295e-01  3.1389873399198580e-04  2.2161784333302211e-04  1.3767219522946658e-04  -1.2518378819640527e-02  -1.5845684122859174e-04  3.1022948261469403e-05  4.4541963659437271e-04  -1.8206197756521114e-01  4.7035686642144962e-04  6.7881947870848376e-04  4.7610595292971837e-04  -2.2674793229578444e-01  1.6413240897133249e-04  6.9733863363339742e-04  2.8906757968301557e-04  7.6286865654779542e-05  1.4906795626833274e-04  -2.6239725797883534e-01  -3.3192059736693158e-01  -4.5118414195713221e-03  -1.1640034624950470e-01  3.9978047399902506e-04  2.2806892834959492e-04  2.0404468170115962e-04  3.7959065217628944e-04  4.4431428121249937e-04  6.1483774099075554e-04  7.7819297545516394e-04  6.0888701470401666e-04  -1.2243744912425298e-02  1.7445711130707745e-04  -1.9408175351907198e-01  -1.4391765872078222e-01  9.3804098801943928e-04  1.7171784914731892e-04  8.9441627748478714e-05  -2.5892452047806514e-05  6.9367809562948568e-05  9.9123361549950507e-05  8.6686356386654623e-06  -4.8131081804672263e-04  5.1444445767083512e-04  -1.5603760952572682e-05  3.2034581964381363e-04  2.5691699421288345e-04  8.8396563483150855e-04  -4.1826575130718684e-02  8.3782191899521534e-05  1.9729784860919239e-04  2.7706876899245023e-04  8.0714207090447354e-04  -1.1266099861716339e-03  1.0785750434925573e-04  5.1757979604492626e-04  -1.6877895974217740e-04  -1.4793479363754250e-01  4.6465988382753218e-04  3.2250546464998884e-04  8.2620423796580611e-04  2.0320657903326797e-04  -1.4207158048853329e-04  2.3248832551049848e-04  4.3303604987068650e-05  7.1387225592877589e-05  1.8385116207877649e-04  6.1343826724500597e-05  4.1807613141891235e-04  3.2114995348809800e-04  1.8801300797842451e-04  1.6304683920192745e-06  4.9397932170388949e-05  2.4373996071527085e-04  3.5312989870542701e-04  8.9150322206660467e-04  -3.4400344726275589e-01  6.6954720800587968e-05  -2.6512562040359677e-01  -2.3275695668033514e-01  1.6202936098565112e-04  -1.8430441347177905e-04  5.5861836502453513e-05  3.8714045477590390e-04  -3.4529472422951020e-03  3.4175394048567857e-04  4.9734479491796635e-04  -2.9338203822565523e-01  1.2386386188501581e-05  -8.9406560009652722e-05  7.9943497773392279e-05  2.0236628301988047e-04  9.4839734448949294e-04  7.7957919296674021e-04  2.1949161840333943e-04  3.3808347832377734e-05  -2.7139502182105241e-01  5.6030857443191114e-04  1.0563528121884418e-04  4.3878353113514253e-04  9.4012895615871729e-05  2.1039151223219144e-04  4.1242389210151883e-04  2.3222813379962035e-04  -1.5760311799735044e-01  -2.8310294103834265e-05  1.3400917065430287e-05  6.5178810649912215e-06  6.0247315180278862e-04  5.8940456877340736e-04  5.4994806442321684e-04  7.1583867600090965e-04  5.7095719112342950e-05  2.3928512787463622e-04  8.1900322887225763e-04  3.1088492058876654e-05  5.6909225623677495e-04  3.1430293547207667e-04  -1.2448594816674016e-04  1.3991468105187038e-04  5.0589057025585745e-04  1.5133043751231330e-04  -6.0183455459710343e-06  4.9971053381503373e-04  5.0963265407157998e-04  2.6980723551630042e-04  7.6372531584483714e-05  4.5828621958808938e-04  2.0547969396444936e-04  1.5259478741838766e-04  8.9075928256947392e-05  8.6611936601037472e-04  1.1641562239391801e-03  -1.9527538300166988e-01  7.9537539720770897e-04  2.5276189783303985e-04  -4.4485622767413913e-02  5.7544974347827689e-04  3.6859356763215776e-04  3.0703025064865447e-05  5.2435119088132939e-05  1.9885361859939499e-04  4.6101005468447351e-04  1.0486410209363306e-04  1.4221792261779221e-03  3.5873898109343370e-04  2.9105803221093267e-04  8.6961846707075285e-05  8.9854827240923044e-05  4.3171759960057842e-04  -8.8984175140620028e-06  5.6740321971108208e-04  4.6102205501957798e-04  2.8667235330017191e-04  1.7192206515459808e-04  -1.1921710456407916e-04  6.2915073656387376e-05  7.1402822528035580e-04  4.1444953914494321e-04  3.3118947847249851e-04  4.5926182577147386e-04  4.1997351913622660e-04  1.0477264538980204e-03  4.9635063263345853e-04  7.2637659318899243e-04  3.4449820996694937e-04  -2.8524415649752316e-01  5.8861774500490406e-04  8.8573852021233323e-04  5.3868687463254870e-04  6.6227315271628700e-04  3.0096001095993204e-04  2.2754490197293017e-04  -4.9067215439051876e-05  -6.3587931441278514e-02  4.2446401096163214e-05  3.1500637943500013e-04  6.9664654064350412e-04  -1.1942657663816554e-04  5.6563549386812759e-04  1.9982494552640164e-04  -1.6825743955914454e-01  -4.4194395346508304e-03  8.8583444627094192e-04  1.7019965303308713e-04  2.0823324668756195e-04  2.0848610631666491e-04  5.9925781459217503e-04  3.8010918017023035e-04  5.6157291428965796e-04  -1.2241519585927747e-05  4.6810470029529035e-04  7.5037475717587478e-04  3.2307558883900352e-04  -1.7340959622726404e-01  4.9863012763968215e-04  8.4958669607496497e-04  2.2230046089029168e-04  4.3998428751464456e-04  5.6544247216778684e-04  5.2862058911789362e-04  -2.9661162536798590e-06  3.0089028922755732e-04  -1.7415829303888052e-05  5.6951724288377535e-05  2.4799791330606404e-04  -4.3810951394120270e-04  6.7759596414296435e-05  -8.9165224128782873e-06  1.0414317792663113e-04  5.3468023095461616e-04  6.5125909157806247e-04  -2.7193897281861763e-03  1.4981503379198844e-04  1.3117312501879396e-03  -1.5044911237614448e-05  -3.8266958262532160e-05  7.9537162048371284e-05  8.7081601689460199e-04  3.8281077027489658e-04  2.2900777477621236e-04  7.2932576285533810e-04  7.5322801762450482e-04  2.0289323462621881e-04  1.1239295800361580e-04  7.4016638321582079e-05  3.4755756876020719e-04  2.2150274888969084e-04  4.1463408489139235e-04  2.97406