<?xml version="1.0"?>
<VTKFile type="UnstructuredGrid"  version="0.1"  >
<UnstructuredGrid>
<Piece  NumberOfPoints="20054" NumberOfCells="39478">
<Points>
<DataArray  type="Float64"  NumberOfComponents="3"  format="ascii">1 0 0  0.9997998037428526 0.02000880895389431 0  0.9991992951284931 0.04000960653046352 0  0.9981987145960756 0.05999438456007805 0  0.9967984627705549 0.07995514128721501 0  0.9949991003022806 0.09988388457430118 0  0.9928013476425149 0.1197726351017051 0  0.9902060847549715 0.139613429562597 0  0.987214350763483 0.1593983238513969 0  0.9838273435359444 0.1791193962445356 0  0.9800464192046954 0.198768750572253 0  0.9758730916235354 0.2183385193801655 0  0.9713090317615876 0.237820867079336 0  0.9663560670342555 0.2572079930835849 0  0.9610161805715396 0.2764921349327862 0  0.9552915104240066 0.2956655714008991 0  0.9491843487067304 0.3147206255874884 0  0.9426971406815462 0.3336496679914983 0  0.9358324837779861 0.3524451195660473 0  0.9285931265532873 0.3710994547530225 0  0.9209819675918909 0.3896052044962556 0  0.9130020543448703 0.4079549592320781 0  0.9046565819097542 0.4261413718560547 0  0.8959488917512338 0.4441571606647087 0  0.8868824703632656 0.4619951122710622 0  0.8774609478731046 0.4796480844928215 0  0.8676880965878291 0.4971090092120542 0  0.8575678294839372 0.5143708952052096 0  0.8471041986406199 0.5314268309423539 0  0.8363013936173391 0.5482699873544935 0  0.8251637397763597 0.5648936205678837 0  0.8136956965509062 0.5812910746042258 0  0.8019018556596399 0.5974557840456699 0  0.7897869392681683 0.6133812766635599 0  0.777355798098326 0.6290611760098652 0  0.7646134094859813 0.6444892039702628 0  0.7515648753881492 0.6596591832778468 0  0.7382154203402046 0.6745650399864606 0  0.7245703893640189 0.6892008059026586 0  0.7106352458278521 0.7035606209753273 0  0.6964155692588616 0.7176387356420051 0  0.6819170531091018 0.7314295131309636 0  0.6671455024759069 0.7449274317181303 0  0.6521068317775753 0.7581270869379442 0  0.6368070623852795 0.7710231937472638 0  0.6212523202121545 0.7836105886414595 0  0.6054488332605282 0.795884231721841 0  0.5894029291282759 0.8078392087135958 0  0.5731210324752972 0.8194707329334278 0  0.5566096624511305 0.8307741472061095 0  0.5398754300847343 0.8417449257291802 0  0.5229250356374803 0.8523786758850435 0  0.5057652659204196 0.8626711399997378 0  0.4884029915768944 0.8726181970476778 0  0.4708451643315825 0.8822158643016828 0  0.45309881420708 0.8914602989276292 0  0.4351710467091336 0.9003477995230937 0  0.4170690399816468 0.9088748075993677 0  0.398800041932607 0.9170379090062476 0  0.3803713673320772 0.9248338352990368 0  0.3617903948834157 0.9322594650472057 0  0.3430645642688987 0.9393118250841893 0  0.3242013731709288 0.9459880916978206 0  0.3052083742700172 0.952285591760924 0  0.2860931722207478 0.9582018038016155 0  0.2668634206069304 0.963734359012881 0  0.2475268188771628 0.9688810422010291 0  0.2280911092620296 0.9736397926726377 0  0.2085640736741707 0.9780087050596407 0  0.1889535305924618 0.9819860300822225 0  0.1692673319315541 0.9855701752492174 0  0.1495133598980264 0.9887597054957302 0  0.1296995238344084 0.9915533437577263 0  0.1098337570523395 0.9939499714833577 0  0.08992401365612977 0.9959486290808237 0  0.06997826535799723 0.9975485163025836 0  0.05000449828625179 0.9987489925657699 0  0.03001070978771124 0.9995495772086734 0  0.01000490522562346 0.9999499496831961 0  -0.01000490522562333 0.9999499496831961 0  -0.03001070978771133 0.9995495772086734 0  -0.05000449828625144 0.9987489925657699 0  -0.06997826535799688 0.9975485163025836 0  -0.08992401365612987 0.9959486290808237 0  -0.1098337570523394 0.9939499714833577 0  -0.1296995238344082 0.9915533437577263 0  -0.1495133598980262 0.9887597054957303 0  -0.1692673319315537 0.9855701752492174 0  -0.1889535305924614 0.9819860300822226 0  -0.2085640736741705 0.9780087050596407 0  -0.2280911092620295 0.9736397926726377 0  -0.2475268188771627 0.9688810422010291 0  -0.2668634206069302 0.9637343590128811 0  -0.2860931722207475 0.9582018038016156 0  -0.3052083742700173 0.9522855917609239 0  -0.3242013731709289 0.9459880916978205 0  -0.3430645642688986 0.9393118250841894 0  -0.3617903948834154 0.9322594650472058 0  -0.380371367332077 0.924833835299037 0  -0.3988000419326071 0.9170379090062476 0  -0.4170690399816465 0.9088748075993678 0  -0.4351710467091335 0.9003477995230939 0  -0.4530988142070799 0.8914602989276292 0  -0.4708451643315824 0.8822158643016829 0  -0.4884029915768945 0.8726181970476778 0  -0.5057652659204197 0.8626711399997378 0  -0.5229250356374801 0.8523786758850437 0  -0.5398754300847342 0.8417449257291804 0  -0.5566096624511303 0.8307741472061098 0  -0.5731210324752971 0.8194707329334279 0  -0.589402929128276 0.8078392087135957 0  -0.6054488332605281 0.7958842317218411 0  -0.6212523202121542 0.7836105886414597 0  -0.6368070623852793 0.7710231937472639 0  -0.652106831777575 0.7581270869379444 0  -0.6671455024759069 0.7449274317181304 0  -0.6819170531091018 0.7314295131309636 0  -0.6964155692588616 0.7176387356420052 0  -0.7106352458278521 0.7035606209753273 0  -0.7245703893640187 0.6892008059026588 0  -0.7382154203402043 0.6745650399864608 0  -0.751564875388149 0.6596591832778469 0  -0.7646134094859813 0.6444892039702628 0  -0.7773557980983258 0.6290611760098654 0  -0.7897869392681683 0.6133812766635599 0  -0.8019018556596398 0.59745578404567 0  -0.8136956965509062 0.5812910746042258 0  -0.8251637397763595 0.5648936205678839 0  -0.836301393617339 0.5482699873544935 0  -0.8471041986406197 0.5314268309423542 0  -0.8575678294839372 0.5143708952052097 0  -0.8676880965878292 0.497109009212054 0  -0.8774609478731045 0.4796480844928216 0  -0.8868824703632656 0.4619951122710621 0  -0.8959488917512338 0.4441571606647088 0  -0.904656581909754 0.426141371856055 0  -0.9130020543448703 0.4079549592320783 0  -0.920981967591891 0.3896052044962555 0  -0.9285931265532872 0.3710994547530226 0  -0.9358324837779861 0.3524451195660473 0  -0.9426971406815462 0.3336496679914984 0  -0.9491843487067303 0.3147206255874888 0  -0.9552915104240065 0.2956655714008993 0  -0.9610161805715396 0.2764921349327862 0  -0.9663560670342555 0.2572079930835851 0  -0.9713090317615876 0.2378208670793361 0  -0.9758730916235353 0.2183385193801658 0  -0.9800464192046954 0.198768750572253 0  -0.9838273435359444 0.1791193962445354 0  -0.987214350763483 0.159398323851397 0  -0.9902060847549714 0.1396134295625972 0  -0.9928013476425149 0.1197726351017052 0  -0.9949991003022804 0.09988388457430147 0  -0.9967984627705549 0.07995514128721509 0  -0.9981987145960756 0.05999438456007793 0  -0.9991992951284931 0.04000960653046362 0  -0.9997998037428526 0.02000880895389464 0  -1 1.224646799147353e-16 0  -0.9997998037428526 -0.0200088089538944 0  -0.9991992951284931 -0.04000960653046338 0  -0.9981987145960756 -0.05999438456007812 0  -0.9967984627705549 -0.07995514128721484 0  -0.9949991003022806 -0.09988388457430078 0  -0.9928013476425149 -0.1197726351017049 0  -0.9902060847549715 -0.1396134295625965 0  -0.9872143507634831 -0.1593983238513963 0  -0.9838273435359444 -0.1791193962445356 0  -0.9800464192046953 -0.1987687505722532 0  -0.9758730916235354 -0.2183385193801655 0  -0.9713090317615876 -0.2378208670793363 0  -0.9663560670342556 -0.2572079930835848 0  -0.9610161805715396 -0.276492134932786 0  -0.9552915104240066 -0.2956655714008991 0  -0.9491843487067305 -0.3147206255874881 0  -0.9426971406815464 -0.3336496679914978 0  -0.9358324837779862 -0.3524451195660471 0  -0.9285931265532875 -0.371099454753022 0  -0.9209819675918909 -0.3896052044962557 0  -0.9130020543448704 -0.407954959232078 0  -0.9046565819097541 -0.4261413718560548 0  -0.8959488917512338 -0.4441571606647086 0  -0.8868824703632655 -0.4619951122710623 0  -0.8774609478731046 -0.4796480844928214 0  -0.8676880965878293 -0.4971090092120538 0  -0.8575678294839373 -0.5143708952052095 0  -0.84710419864062 -0.5314268309423537 0  -0.8363013936173395 -0.5482699873544929 0  -0.8251637397763596 -0.5648936205678838 0  -0.8136956965509061 -0.5812910746042259 0  -0.8019018556596399 -0.5974557840456699 0  -0.7897869392681682 -0.61338127666356 0  -0.777355798098326 -0.6290611760098652 0  -0.7646134094859816 -0.6444892039702625 0  -0.7515648753881492 -0.6596591832778468 0  -0.7382154203402048 -0.6745650399864603 0  -0.7245703893640192 -0.6892008059026583 0  -0.7106352458278522 -0.7035606209753272 0  -0.6964155692588621 -0.7176387356420046 0  -0.6819170531091017 -0.7314295131309637 0  -0.667145502475907 -0.7449274317181303 0  -0.6521068317775756 -0.758127086937944 0  -0.6368070623852792 -0.7710231937472641 0  -0.6212523202121544 -0.7836105886414596 0  -0.6054488332605283 -0.795884231721841 0  -0.5894029291282762 -0.8078392087135956 0  -0.5731210324752977 -0.8194707329334274 0  -0.5566096624511304 -0.8307741472061095 0  -0.5398754300847344 -0.8417449257291802 0  -0.5229250356374798 -0.8523786758850437 0  -0.5057652659204195 -0.8626711399997379 0  -0.4884029915768943 -0.872618197047678 0  -0.4708451643315825 -0.8822158643016828 0  -0.4530988142070805 -0.8914602989276289 0  -0.4351710467091333 -0.900347799523094 0  -0.4170690399816467 -0.9088748075993677 0  -0.3988000419326073 -0.9170379090062475 0  -0.3803713673320777 -0.9248338352990366 0  -0.3617903948834162 -0.9322594650472055 0  -0.3430645642688988 -0.9393118250841893 0  -0.3242013731709283 -0.9459880916978207 0  -0.3052083742700169 -0.9522855917609241 0  -0.2860931722207477 -0.9582018038016155 0  -0.2668634206069305 -0.963734359012881 0  -0.2475268188771631 -0.968881042201029 0  -0.2280911092620301 -0.9736397926726376 0  -0.2085640736741706 -0.9780087050596407 0  -0.1889535305924619 -0.9819860300822225 0  -0.1692673319315544 -0.9855701752492173 0  -0.1495133598980269 -0.9887597054957302 0  -0.1296995238344092 -0.9915533437577262 0  -0.1098337570523396 -0.9939499714833577 0  -0.08992401365612945 -0.9959486290808237 0  -0.06997826535799691 -0.9975485163025836 0  -0.05000449828625168 -0.9987489925657699 0  -0.030010709787
[...]
<PointData  Scalars="Displacement"> 
<DataArray  type="Float64"  Name="Displacement"  format="ascii">0.0000000000000000e+00  0.0000000000000000e+00  0.0000000000000000e+00  0.0000000000000000e+00  0.0000000000000000e+00  0.0000000000000000e+00  0.0000000000000000e+00  0.0000000000000000e+00  0.0000000000000000e+00  0.0000000000000000e+00  0.0000000000000000e+00  0.0000000000000000e+00  0.0000000000000000e+00  0.0000000000000000e+00  0.0000000000000000e+00  0.0000000000000000e+00  0.0000000000000000e+00  0.0000000000000000e+00  0.0000000000000000e+00  0.0000000000000000e+00  0.0000000000000000e+00  0.0000000000000000e+00  0.0000000000000000e+00  0.0000000000000000e+00  0.0000000000000000e+00  0.0000000000000000e+00  0.0000000000000000e+00  0.0000000000000000e+00  0.0000000000000000e+00  0.0000000000000000e+00  0.0000000000000000e+00  0.0000000000000000e+00  0.0000000000000000e+00  0.0000000000000000e+00  0.0000000000000000e+00  0.0000000000000000e+00  0.0000000000000000e+00  0.0000000000000000e+00  0.0000000000000000e+00  0.0000000000000000e+00  0.0000000000000000e+00  0.0000000000000000e+00  0.0000000000000000e+00  0.0000000000000000e+00  0.0000000000000000e+00  0.0000000000000000e+00  0.0000000000000000e+00  0.0000000000000000e+00  0.0000000000000000e+00  0.0000000000000000e+00  0.0000000000000000e+00  0.0000000000000000e+00  0.0000000000000000e+00  0.0000000000000000e+00  0.0000000000000000e+00  0.0000000000000000e+00  0.0000000000000000e+00  0.0000000000000000e+00  0.0000000000000000e+00  0.0000000000000000e+00  0.0000000000000000e+00  0.0000000000000000e+00  0.0000000000000000e+00  0.0000000000000000e+00  0.0000000000000000e+00  0.0000000000000000e+00  0.0000000000000000e+00  0.0000000000000000e+00  0.0000000000000000e+00  0.0000000000000000e+00  0.0000000000000000e+00  0.0000000000000000e+00  0.0000000000000000e+00  0.0000000000000000e+00  0.0000000000000000e+00  0.0000000000000000e+00  0.0000000000000000e+00  0.0000000000000000e+00  0.0000000000000000e+00  0.0000000000000000e+00  0.0000000000000000e+00  0.0000000000000000e+00  0.0000000000000000e+00  0.0000000000000000e+00  0.0000000000000000e+00  0.0000000000000000e+00  0.0000000000000000e+00  0.0000000000000000e+00  0.0000000000000000e+00  0.0000000000000000e+00  0.0000000000000000e+00  0.0000000000000000e+00  0.0000000000000000e+00  0.0000000000000000e+00  0.0000000000000000e+00  0.0000000000000000e+00  0.0000000000000000e+00  0.0000000000000000e+00  0.0000000000000000e+00  0.0000000000000000e+00  0.0000000000000000e+00  0.0000000000000000e+00  0.0000000000000000e+00  0.0000000000000000e+00  0.0000000000000000e+00  0.0000000000000000e+00  0.0000000000000000e+00  0.0000000000000000e+00  0.0000000000000000e+00  0.0000000000000000e+00  0.0000000000000000e+00  0.0000000000000000e+00  0.0000000000000000e+00  0.0000000000000000e+00  0.0000000000000000e+00  0.0000000000000000e+00  0.0000000000000000e+00  0.0000000000000000e+00  0.0000000000000000e+00  0.0000000000000000e+00  0.0000000000000000e+00  0.0000000000000000e+00  0.0000000000000000e+00  0.0000000000000000e+00  0.0000000000000000e+00  0.0000000000000000e+00  0.0000000000000000e+00  0.0000000000000000e+00  0.0000000000000000e+00  0.0000000000000000e+00  0.0000000000000000e+00  0.0000000000000000e+00  0.0000000000000000e+00  0.0000000000000000e+00  0.0000000000000000e+00  0.0000000000000000e+00  0.0000000000000000e+00  0.0000000000000000e+00  0.0000000000000000e+00  0.0000000000000000e+00  0.0000000000000000e+00  0.0000000000000000e+00  0.0000000000000000e+00  0.0000000000000000e+00  0.0000000000000000e+00  0.0000000000000000e+00  0.0000000000000000e+00  0.0000000000000000e+00  0.0000000000000000e+00  0.0000000000000000e+00  0.0000000000000000e+00  0.0000000000000000e+00  0.0000000000000000e+00  0.0000000000000000e+00  0.0000000000000000e+00  0.0000000000000000e+00  0.0000000000000000e+00  0.0000000000000000e+00  0.0000000000000000e+00  0.0000000000000000e+00  0.0000000000000000e+00  0.0000000000000000e+00  0.0000000000000000e+00  0.0000000000000000e+00  0.0000000000000000e+00  0.0000000000000000e+00  0.0000000000000000e+00  0.0000000000000000e+00  0.0000000000000000e+00  0.0000000000000000e+00  0.0000000000000000e+00  0.0000000000000000e+00  0.0000000000000000e+00  0.0000000000000000e+00  0.0000000000000000e+00  0.0000000000000000e+00  0.0000000000000000e+00  0.0000000000000000e+00  0.0000000000000000e+00  0.0000000000000000e+00  0.0000000000000000e+00  0.0000000000000000e+00  0.0000000000000000e+00  0.0000000000000000e+00  0.0000000000000000e+00  0.0000000000000000e+00  0.0000000000000000e+00  0.0000000000000000e+00  0.0000000000000000e+00  0.0000000000000000e+00  0.0000000000000000e+00  0.0000000000000000e+00  0.0000000000000000e+00  0.0000000000000000e+00  0.0000000000000000e+00  0.0000000000000000e+00  0.0000000000000000e+00  0.0000000000000000e+00  0.0000000000000000e+00  0.0000000000000000e+00  0.0000000000000000e+00  0.0000000000000000e+00  0.0000000000000000e+00  0.0000000000000000e+00  0.0000000000000000e+00  0.0000000000000000e+00  0.0000000000000000e+00  0.0000000000000000e+00  0.0000000000000000e+00  0.0000000000000000e+00  0.0000000000000000e+00  0.0000000000000000e+00  0.0000000000000000e+00  0.0000000000000000e+00  0.0000000000000000e+00  0.0000000000000000e+00  0.0000000000000000e+00  0.0000000000000000e+00  0.0000000000000000e+00  0.0000000000000000e+00  0.0000000000000000e+00  0.0000000000000000e+00  0.0000000000000000e+00  0.0000000000000000e+00  0.0000000000000000e+00  0.0000000000000000e+00  0.0000000000000000e+00  0.0000000000000000e+00  0.0000000000000000e+00  0.0000000000000000e+00  0.0000000000000000e+00  0.0000000000000000e+00  0.0000000000000000e+00  0.0000000000000000e+00  0.0000000000000000e+00  0.0000000000000000e+00  0.0000000000000000e+00  0.0000000000000000e+00  0.0000000000000000e+00  0.0000000000000000e+00  0.0000000000000000e+00  0.0000000000000000e+00  0.0000000000000000e+00  0.0000000000000000e+00  0.0000000000000000e+00  0.0000000000000000e+00  0.0000000000000000e+00  0.0000000000000000e+00  0.0000000000000000e+00  0.0000000000000000e+00  0.0000000000000000e+00  0.0000000000000000e+00  0.0000000000000000e+00  0.0000000000000000e+00  0.0000000000000000e+00  0.0000000000000000e+00  0.0000000000000000e+00  0.0000000000000000e+00  0.0000000000000000e+00  0.0000000000000000e+00  0.0000000000000000e+00  0.0000000000000000e+00  0.0000000000000000e+00  0.0000000000000000e+00  0.0000000000000000e+00  0.0000000000000000e+00  0.0000000000000000e+00  0.0000000000000000e+00  0.0000000000000000e+00  0.0000000000000000e+00  0.0000000000000000e+00  0.0000000000000000e+00  0.0000000000000000e+00  0.0000000000000000e+00  0.0000000000000000e+00  0.0000000000000000e+00  0.0000000000000000e+00  0.0000000000000000e+00  0.0000000000000000e+00  0.0000000000000000e+00  0.0000000000000000e+00  0.0000000000000000e+00  0.0000000000000000e+00  0.0000000000000000e+00  0.0000000000000000e+00  0.0000000000000000e+00  0.0000000000000000e+00  0.0000000000000000e+00  0.0000000000000000e+00  0.0000000000000000e+00  0.0000000000000000e+00  0.0000000000000000e+00  0.0000000000000000e+00  0.0000000000000000e+00  0.0000000000000000e+00  0.0000000000000000e+00  0.0000000000000000e+00  0.0000000000000000e+00  0.0000000000000000e+00  0.0000000000000000e+00  0.0000000000000000e+00  0.0000000000000000e+00  0.0000000000000000e+00  0.0000000000000000e+00  0.0000000000000000e+00  0.0000000000000000e+00  0.0000000000000000e+00  0.0000000000000000e+00  0.0000000000000000e+00  0.0000000000000000e+00  0.0000000000000000e+00  0.0000000000000000e+00  0.0000000000000000e+00  0.0000000000000000e+00  1.8489430457199261e+232  7.4924965866197693e+228  -1.4839086152908381e+229  -4.6747343820972618e+232  9.7742013186430594e+227  -1.0704221134304762e+232  3.7001242272139466e+227  1.4429417175829496e+225  -2.0589363159342808e+227  -2.5963816903654131e+224  -4.4788480582951326e+226  3.0012398360935523e+234  -6.1163755973665191e+227  7.8623624544620743e+222  -2.8037571910966239e+230  -2.4461265050595065e+233  -1.8726276245980479e+225  2.1518863942731334e+225  -1.2037007198623743e+223  9.8776971509204613e+225  1.3621568700071180e+221  -5.5518852380564825e+222  -5.6003569103254545e+222  -4.8006704023036358e+230  -8.0042296222908637e+234  1.0634651477911941e+231  -5.8674119473002334e+224  -7.2300720624505415e+223  1.7696277856973385e+225  1.3171410290100616e+230  -6.2536300347776577e+221  5.4860245163961183e+234  -1.8347773316828244e+234  -1.2407102848334550e+235  5.1065092055588231e+221  2.5442603611003445e+221  9.2781383595992448e+220  1.9951892640266251e+222  2.2019667174125282e+223  4.5311961427844812e+229  -3.4970581127227887e+230  1.1929361035649606e+226  -1.2576611104578831e+229  -5.1653796104721087e+234  -3.6997291912713564e+220  9.1042317405761599e+220  -3.7538784032684238e+221  -3.5151789361340413e+220  3.7791879523373739e+227  -2.8756497492310355e+227  3.5889304063863129e+228  2.0538551408416002e+225  2.7361014407448138e+229  -1.4640735804207144e+232  -2.1554564683937809e+226  -1.4024108416435924e+231  -2.3051694707422253e+221  -1.3870711218304726e+223  3.3756200640519982e+232  -8.4268617378156137e+224  -8.6631118883636662e+222  2.6005332345117639e+224  -6.5534682020276102e+219  -4.6920429439261034e+219  -3.6143574132426433e+231  6.7394771869056598e+230  1.8106739827215611e+234  -3.4205168961975282e+229  1.4795356649394773e+234  -4.2007217254946683e+230  5.0864919232942794e+233  7.5948315051842710e+226  -1.1661322297607496e+230  -9.1383026096263596e+225  3.6213897451063042e+228  -7.1182430274013355e+228  -1.1497928814926331e+222  -1.8392448962149990e+232  3.1113670366526376e+231  1.4464371838137161e+223  2.1435020519279474e+222  -1.5389262258848238e+229  9.4286865532076741e+222  -4.8221847137972339e+217  7.6780976687405637e+219  2.4703878379619653e+234  -6.4258394231456223e+221  -9.6701969857357998e+220  -6.5565760156467232e+219  7.5651314228822325e+230  8.5893892529158239e+224  1.1765384489912610e+220  -5.1382500935410467e+227  2.3641136330586333e+219  4.8340677876866992e+225  7.1154447982506092e+235  1.4060417262264951e+221  -2.2855737060472262e+219  -5.8405631845615798e+224  -2.3507616638896703e+222  -2.7470636887777824e+225  2.2599172687957402e+226  6.8413646182654459e+220  5.2833964445651935e+230  -2.2954812740381469e+228  -2.1875211693332299e+228  7.3887073837663357e+231  5.6313547617145702e+225  -9.4828876026629917e+225  4.6915801544217838e+220  3.0009335663129027e+231  -2.3530807498251192e+226  -2.5794291034338063e+219  1.7781048479103194e+228  7.2816477172328366e+229  -8.7931095954512571e+221  8.0911033178573353e+220  1.2449155736155192e+220  -6.1663864199551636e+218  -3.9691637251943502e+231  -1.3705274243970856e+230  1.0571206399193231e+224  1.9564119201181279e+235  -1.5025958218970363e+223  6.6568280221071234e+226  2.9325477873838333e+226  7.1761415924333129e+219  -9.4562286101345585e+220  9.1392716426159085e+224  -8.7110504252724247e+226  2.1283402612804025e+224  6.1236358190336971e+222  -6.2308124688325646e+227  -5.3839585913322017e+230  2.9809035874558107e+224  3.8130679127729398e+222  6.6821309756983262e+220  3.9097451987058847e+238  1.3502480886255796e+232  1.4910514353404082e+231  6.0882970701463118e+232  -3.4935109386753109e+237  -1.1492646947131818e+223  -2.2912225381549721e+235  2.3384763894572797e+226  -1.2382739895550881e+223  -2.2856796994824897e+222  1.0033856448104817e+230  4.5827573821925693e+232  -7.1865332429594659e+224  -1.6331717973530124e+218  -4.0363891659468698e+230  4.3222526456701288e+235  -4.4036796824342297e+219  -2.8459398834503514e+223  -1.1799678189542432e+218  -3.8855362951652337e+218  2.5209642558741081e+223  6.3428140041073224e+219  -3.2859440424189711e+218  -4.5668969306273427e+218  1.4765504166027503e+223  -1.8797797067626700e+228  8.5510320317484866e+220  2.2619558158960262e+224  3.7986123678347572e+230  9.6634626169187905e+225  2.1718161469038116e+218  -1.7382977522769709e+217  -2.8754129815430985e+222  -2.5099954209367059e+228  -5.3330846218698949e+231  1.3753279214535175e+222  1.2698396976446062e+233  2.0105859506296807e+219  -2.0695540306011569e+227  3.8995677964516096e+219  3.5269727288557493e+223  -1.0402844813318566e+218  -9.9069194234391819e+227  -1.4265945907956061e+222  -2.2706167155296753e+230  1.8713147699757462e+226  6.3057763995223492e+233  -6.6438536217048404e+218  9.6170899638984290e+227  -4.3199651192753458e+226  -3.8957688734456445e+230  1.2418208489447548e+219  -2.6981953960737172e+221  -4.9906628427125715e+221  1.8378384560702331e+235  -4.7798862635657847e+217  1.6467722205401706e+223  -1.1208249976301375e+233  -3.6220099700678502e+234  3.7983470275136227e+223  1.3924676556469543e+224  7.1684836027609736e+230  7.7644819319158796e+226  3.1164418010758176e+228  1.6523785564340855e+227  -2.3820248747203177e+229  -7.4790436158228257e+224  4.8860125132537858e+226  5.5328804418550643e+222  -3.5433605273237368e+221  1.5156513412861596e+232  -1.8477080564086294e+222  -7.8335444554479613e+221  -2.8914928134159539e+222  -4.5668553199170196e+230  1.4961550193995548e+230  3.0899323532810515e+224  -2.2843754698346332e+217  4.3661983355397332e+225  -8.5620560920556009e+232  5.6936058309361242e+222  1.7361476339297129e+225  4.4195885753144236e+223  -3.0214448157434048e+220  4.7824748320954960e+227  4.1498215443328879e+231  3.4291232943901770e+226  -4.6473534320917938e+226  -1.1714553309172307e+220  1.2181322810513526e+223  4.4310163632396038e+218  -1.5479895409702586e+223  3.1600724432295541e+217  -1.5203216421211458e+220  3.0562900357204391e+220  2.3511309959040086e+220  7.4367398146035019e+222  -5.5530856857136032e+221  4.9542942185846938e+228  7.4058726753923167e+225  2.5070719987039461e+225  7.6435838627816049e+222  -2.8596183949172028e+232  1.7874580994930262e+231  -9.6180109139423585e+226  -1.1207653935003959e+228  1.7545426499292382e+220  -1.5568210351338601e+231  2.2453828708374735e+226  1.2562473962589631e+220  7.6918715218344857e+216  -3.3882403056175806e+232  3.5258986773285232e+229  8.2432155921605093e+228  -5.8531588624963090e+227  -2.5237193608582203e+235  -1.9563296802370418e+232  -6.2244109475599091e+221  2.4140397781260696e+232  -1.4091530395098129e+226  -3.7955983438590025e+227  -4.8613703331275653e+219  -5.1622188396804054e+220  -4.2466778291001153e+218  3.1850683467136655e+225  3.0863719196753446e+223  -1.2139886787601986e+231  3.3442602439897741e+231  -3.6878663104366357e+233  1.0134490906847097e+222  -1.1312447605147858e+220  -1.5796728365528092e+218  9.7611072597422892e+226  3.1086617260988970e+218  1.8307406795752476e+233  -1.6847661479345472e+231  1.2819610152660361e+224  -1.4929268670243385e+218  -1.5738062781772191e+223  -1.8935951568520951e+236  -4.9490247765264229e+231  -1.3322386846010639e+230  2.0770035145370868e+230  3.3936971270396981e+229  9.2587124683925382e+232  5.2009408195336885e+231  -2.4801278066261618e+229  9.1138135768648286e+226  2.5025126929070077e+223  -6.6795162624417921e+235  1.0139190324257052e+220  -1.7443317478944862e+223  -2.6678816464030087e+232  8.2050549668377408e+232  1.8292912751443038e+232  1.6711249446924979e+225  1.4087789674871868e+225  -3.8042224470291013e+236  3.8625593109162724e+217  -1.5149160866051618e+233  1.0267933342166905e+220  6.3735970769040656e+217  -5.1052181451921324e+218  -5.3087909750062796e+230  1.0868611952288217e+230  -5.4312488107962819e+234  -1.3354410210543387e+235  -3.5985362460639132e+228  -4.7022874636441993e+223  -1.7435089206901088e+225  9.8968806535491880e+228  3.6357297143356688e+229  3.6933160646328948e+224  1.0181030474027404e+229  -5.7579614847120329e+225  -3.3570166060257614e+231  -4.0798504285341489e+221  -5.3581403024031586e+230  1.0865973993429274e+231  6.9684798470046161e+229  4.4822783231787504e+221  -1.8749098883714142e+222  1.0788328685761602e+221  2.2830870244089830e+221  -8.5037322277579029e+221  -3.8675120498425858e+220  8.7888724971856424e+233  1.2442048542152301e+219  -1.0698705024907608e+219  -2.4365963307977949e+220  2.1156931636178363e+230  -1.8110429053030969e+228  3.9469938258125109e+230  -4.1711551297616783e+219  -2.3561670930008753e+223  3.0905468027355547e+226  1.7649907067626297e+230  -1.2876229321773951e+231  -6.8043352853271233e+224  -6.4948931608038559e+230  2.9024162675315314e+230  -5.6421779869273708e+236  3.0919817164050574e+223  -2.3094431352321067e+223  6.3556946207435946e+229  1.8965956903635126e+222  6.5040547773409958e+219  -3.5273916812026552e+227  4.4168107771033753e+218  1.4287155860204741e+223  3.9490275514230180e+225  3.9030237427547271e+217  5.5437147198040952e+223  -3.6438777567255274e+225  -3.8041182652275042e+218  -8.0596043728688493e+221  7.5553210054387462e+218  2.4097440212323641e+219  -1.7489145689063040e+224  -2.3117299428137600e+227  2.8416468951800611e+233  3.3099901321783715e+220  -1.2547725392717207e+230  -6.5498115770234423e+234  -1.2035474921732014e+223  6.4328727590420904e+217  -3.9464525738882194e+227  2.0053790827217665e+222  -6.1796997697730033e+235  3.4105774112888687e+221  1.7956395339045059e+223  2.5008352750716886e+231  -3.6324607170868138e+220  3.5350963717854597e+216  -1.6639132426952165e+219  -1.3151524015487567e+224  1.4676270720779973e+230  -5.4114346572421191e+228  -1.3870166402714409e+225  -2.2213758022959332e+224  2.2488161411858155e+234  -6.9184880962071136e+225  -2.0793773359755411e+217  -6.2329394706341750e+227  -2.1024483434614996e+219  -1.2268097947137373e+221  7.5514526441923388e+228  -7.2459466803283377e+219  -1.8476720137035344e+237  -1.0862695270222929e+218  -4.4656492550375594e+221  1.2138882616775424e+218  -2.4462889384115204e+229  4.0257898652576204e+226  4.9178918031166588e+224  -3.3792941212380577e+227  -4.9627903398038055e+217  -9.0632805748343928e+220  -1.6524481412423574e+231  2.0687947337225856e+224  6.5423677279567053e+228  2.7446600871944353e+224  9.1511258996296405e+217  2.0343625137994980e+218  -3.0106307018877089e+230  6.3073643402588251e+218  3.0696023262265523e+230  -3.3637479755744309e+223  -8.8717040605654127e+232  -1.8934800808338321e+224  1.0547212846380969e+219  -7.7515814008257996e+221  -2.7706379072551510e+221  -2.7062730642603444e+221  4.4642094656249713e+221  -1.6030235755047357e+232  2.4277097515706674e+234  -3.4296120563813401e+236  -1.4117976254565222e+232  9.1194299891596371e+220  -6.0412141238633049e+234  7.9625961554976934e+231  -1.9902743350318581e+222  1.1149978381820667e+218  -8.1179555098651652e+217  2.1465028686704255e+226  -3.4331275660372393e+225  4.8369655768164640e+224  6.2436817320374762e+232  3.5115894673499474e+223  -6.2979953252764211e+218  -3.3163537240658606e+217  5.5594782109751861e+219  -1.3343420936989369e+227  3.0990794392091523e+221  -5.4058336012915915e+225  -3.0260975474451865e+220  -2.5868956546130601e+220  1.9578212519132640e+221  -2.8619076177971627e+227  -5.3534535508229207e+221  1.7977216184101069e+228  1.5039288341425963e+229  -5.9928652547508217e+229  2.7027747393359892e+226  1.1966755637996601e+228  -7.4798954416282135e+229  -1.2516733655419053e+219  -7.8031842709072243e+233  -5.3152803295635333e+221  1.2255389993749408e+235  -5.9338449566454075e+225  -3.3285750678170061e+231  -6.5589816586283437e+229  -3.7925498778185545e+237  -1.1175325962304005e+222  -1.3507106223306435e+219  5.1419319407688648e+224  1.7324173106290380e+232  -8.3025995927279150e+223  1.8486083895015454e+229  1.9783089235051137e+230  -1.8354454403502976e+220  3.2624478214471477e+224  1.3693346176390601e+219  2.8840176914933565e+236  3.1950833558855416e+236  -2.7637747792062784e+234  -1.5575287090504067e+224  -4.9019382754519370e+221  -9.2382171930563506e+221  -1.1051458985535702e+224  -3.2742023234351500e+227  3.2551992151352780e+229  -4.0775252096097156e+221  1.2670320599647386e+229  1.2024026903734123e+226  -4.6100332581239365e+223  2.4069803657354818e+235  8.6951843772654812e+224  4.0894480684408749e+229  6.5737892492820104e+225  8.2787124561299524e+227  3.7894973452618933e+224  -1.1476131934611688e+224  4.0393265152461135e+218  -1.1226112950093736e+225  -5.326474844246687