<?xml version="1.0"?>
<VTKFile type="UnstructuredGrid"  version="0.1"  >
<UnstructuredGrid>
<Piece  NumberOfPoints="20054" NumberOfCells="39478">
<Points>
<DataArray  type="Float64"  NumberOfComponents="3"  format="ascii">1 0 0  0.9997998037428526 0.02000880895389431 0  0.9991992951284931 0.04000960653046352 0  0.9981987145960756 0.05999438456007805 0  0.9967984627705549 0.07995514128721501 0  0.9949991003022806 0.09988388457430118 0  0.9928013476425149 0.1197726351017051 0  0.9902060847549715 0.139613429562597 0  0.987214350763483 0.1593983238513969 0  0.9838273435359444 0.1791193962445356 0  0.9800464192046954 0.198768750572253 0  0.9758730916235354 0.2183385193801655 0  0.9713090317615876 0.237820867079336 0  0.9663560670342555 0.2572079930835849 0  0.9610161805715396 0.2764921349327862 0  0.9552915104240066 0.2956655714008991 0  0.9491843487067304 0.3147206255874884 0  0.9426971406815462 0.3336496679914983 0  0.9358324837779861 0.3524451195660473 0  0.9285931265532873 0.3710994547530225 0  0.9209819675918909 0.3896052044962556 0  0.9130020543448703 0.4079549592320781 0  0.9046565819097542 0.4261413718560547 0  0.8959488917512338 0.4441571606647087 0  0.8868824703632656 0.4619951122710622 0  0.8774609478731046 0.4796480844928215 0  0.8676880965878291 0.4971090092120542 0  0.8575678294839372 0.5143708952052096 0  0.8471041986406199 0.5314268309423539 0  0.8363013936173391 0.5482699873544935 0  0.8251637397763597 0.5648936205678837 0  0.8136956965509062 0.5812910746042258 0  0.8019018556596399 0.5974557840456699 0  0.7897869392681683 0.6133812766635599 0  0.777355798098326 0.6290611760098652 0  0.7646134094859813 0.6444892039702628 0  0.7515648753881492 0.6596591832778468 0  0.7382154203402046 0.6745650399864606 0  0.7245703893640189 0.6892008059026586 0  0.7106352458278521 0.7035606209753273 0  0.6964155692588616 0.7176387356420051 0  0.6819170531091018 0.7314295131309636 0  0.6671455024759069 0.7449274317181303 0  0.6521068317775753 0.7581270869379442 0  0.6368070623852795 0.7710231937472638 0  0.6212523202121545 0.7836105886414595 0  0.6054488332605282 0.795884231721841 0  0.5894029291282759 0.8078392087135958 0  0.5731210324752972 0.8194707329334278 0  0.5566096624511305 0.8307741472061095 0  0.5398754300847343 0.8417449257291802 0  0.5229250356374803 0.8523786758850435 0  0.5057652659204196 0.8626711399997378 0  0.4884029915768944 0.8726181970476778 0  0.4708451643315825 0.8822158643016828 0  0.45309881420708 0.8914602989276292 0  0.4351710467091336 0.9003477995230937 0  0.4170690399816468 0.9088748075993677 0  0.398800041932607 0.9170379090062476 0  0.3803713673320772 0.9248338352990368 0  0.3617903948834157 0.9322594650472057 0  0.3430645642688987 0.9393118250841893 0  0.3242013731709288 0.9459880916978206 0  0.3052083742700172 0.952285591760924 0  0.2860931722207478 0.9582018038016155 0  0.2668634206069304 0.963734359012881 0  0.2475268188771628 0.9688810422010291 0  0.2280911092620296 0.9736397926726377 0  0.2085640736741707 0.9780087050596407 0  0.1889535305924618 0.9819860300822225 0  0.1692673319315541 0.9855701752492174 0  0.1495133598980264 0.9887597054957302 0  0.1296995238344084 0.9915533437577263 0  0.1098337570523395 0.9939499714833577 0  0.08992401365612977 0.9959486290808237 0  0.06997826535799723 0.9975485163025836 0  0.05000449828625179 0.9987489925657699 0  0.03001070978771124 0.9995495772086734 0  0.01000490522562346 0.9999499496831961 0  -0.01000490522562333 0.9999499496831961 0  -0.03001070978771133 0.9995495772086734 0  -0.05000449828625144 0.9987489925657699 0  -0.06997826535799688 0.9975485163025836 0  -0.08992401365612987 0.9959486290808237 0  -0.1098337570523394 0.9939499714833577 0  -0.1296995238344082 0.9915533437577263 0  -0.1495133598980262 0.9887597054957303 0  -0.1692673319315537 0.9855701752492174 0  -0.1889535305924614 0.9819860300822226 0  -0.2085640736741705 0.9780087050596407 0  -0.2280911092620295 0.9736397926726377 0  -0.2475268188771627 0.9688810422010291 0  -0.2668634206069302 0.9637343590128811 0  -0.2860931722207475 0.9582018038016156 0  -0.3052083742700173 0.9522855917609239 0  -0.3242013731709289 0.9459880916978205 0  -0.3430645642688986 0.9393118250841894 0  -0.3617903948834154 0.9322594650472058 0  -0.380371367332077 0.924833835299037 0  -0.3988000419326071 0.9170379090062476 0  -0.4170690399816465 0.9088748075993678 0  -0.4351710467091335 0.9003477995230939 0  -0.4530988142070799 0.8914602989276292 0  -0.4708451643315824 0.8822158643016829 0  -0.4884029915768945 0.8726181970476778 0  -0.5057652659204197 0.8626711399997378 0  -0.5229250356374801 0.8523786758850437 0  -0.5398754300847342 0.8417449257291804 0  -0.5566096624511303 0.8307741472061098 0  -0.5731210324752971 0.8194707329334279 0  -0.589402929128276 0.8078392087135957 0  -0.6054488332605281 0.7958842317218411 0  -0.6212523202121542 0.7836105886414597 0  -0.6368070623852793 0.7710231937472639 0  -0.652106831777575 0.7581270869379444 0  -0.6671455024759069 0.7449274317181304 0  -0.6819170531091018 0.7314295131309636 0  -0.6964155692588616 0.7176387356420052 0  -0.7106352458278521 0.7035606209753273 0  -0.7245703893640187 0.6892008059026588 0  -0.7382154203402043 0.6745650399864608 0  -0.751564875388149 0.6596591832778469 0  -0.7646134094859813 0.6444892039702628 0  -0.7773557980983258 0.6290611760098654 0  -0.7897869392681683 0.6133812766635599 0  -0.8019018556596398 0.59745578404567 0  -0.8136956965509062 0.5812910746042258 0  -0.8251637397763595 0.5648936205678839 0  -0.836301393617339 0.5482699873544935 0  -0.8471041986406197 0.5314268309423542 0  -0.8575678294839372 0.5143708952052097 0  -0.8676880965878292 0.497109009212054 0  -0.8774609478731045 0.4796480844928216 0  -0.8868824703632656 0.4619951122710621 0  -0.8959488917512338 0.4441571606647088 0  -0.904656581909754 0.426141371856055 0  -0.9130020543448703 0.4079549592320783 0  -0.920981967591891 0.3896052044962555 0  -0.9285931265532872 0.3710994547530226 0  -0.9358324837779861 0.3524451195660473 0  -0.9426971406815462 0.3336496679914984 0  -0.9491843487067303 0.3147206255874888 0  -0.9552915104240065 0.2956655714008993 0  -0.9610161805715396 0.2764921349327862 0  -0.9663560670342555 0.2572079930835851 0  -0.9713090317615876 0.2378208670793361 0  -0.9758730916235353 0.2183385193801658 0  -0.9800464192046954 0.198768750572253 0  -0.9838273435359444 0.1791193962445354 0  -0.987214350763483 0.159398323851397 0  -0.9902060847549714 0.1396134295625972 0  -0.9928013476425149 0.1197726351017052 0  -0.9949991003022804 0.09988388457430147 0  -0.9967984627705549 0.07995514128721509 0  -0.9981987145960756 0.05999438456007793 0  -0.9991992951284931 0.04000960653046362 0  -0.9997998037428526 0.02000880895389464 0  -1 1.224646799147353e-16 0  -0.9997998037428526 -0.0200088089538944 0  -0.9991992951284931 -0.04000960653046338 0  -0.9981987145960756 -0.05999438456007812 0  -0.9967984627705549 -0.07995514128721484 0  -0.9949991003022806 -0.09988388457430078 0  -0.9928013476425149 -0.1197726351017049 0  -0.9902060847549715 -0.1396134295625965 0  -0.9872143507634831 -0.1593983238513963 0  -0.9838273435359444 -0.1791193962445356 0  -0.9800464192046953 -0.1987687505722532 0  -0.9758730916235354 -0.2183385193801655 0  -0.9713090317615876 -0.2378208670793363 0  -0.9663560670342556 -0.2572079930835848 0  -0.9610161805715396 -0.276492134932786 0  -0.9552915104240066 -0.2956655714008991 0  -0.9491843487067305 -0.3147206255874881 0  -0.9426971406815464 -0.3336496679914978 0  -0.9358324837779862 -0.3524451195660471 0  -0.9285931265532875 -0.371099454753022 0  -0.9209819675918909 -0.3896052044962557 0  -0.9130020543448704 -0.407954959232078 0  -0.9046565819097541 -0.4261413718560548 0  -0.8959488917512338 -0.4441571606647086 0  -0.8868824703632655 -0.4619951122710623 0  -0.8774609478731046 -0.4796480844928214 0  -0.8676880965878293 -0.4971090092120538 0  -0.8575678294839373 -0.5143708952052095 0  -0.84710419864062 -0.5314268309423537 0  -0.8363013936173395 -0.5482699873544929 0  -0.8251637397763596 -0.5648936205678838 0  -0.8136956965509061 -0.5812910746042259 0  -0.8019018556596399 -0.5974557840456699 0  -0.7897869392681682 -0.61338127666356 0  -0.777355798098326 -0.6290611760098652 0  -0.7646134094859816 -0.6444892039702625 0  -0.7515648753881492 -0.6596591832778468 0  -0.7382154203402048 -0.6745650399864603 0  -0.7245703893640192 -0.6892008059026583 0  -0.7106352458278522 -0.7035606209753272 0  -0.6964155692588621 -0.7176387356420046 0  -0.6819170531091017 -0.7314295131309637 0  -0.667145502475907 -0.7449274317181303 0  -0.6521068317775756 -0.758127086937944 0  -0.6368070623852792 -0.7710231937472641 0  -0.6212523202121544 -0.7836105886414596 0  -0.6054488332605283 -0.795884231721841 0  -0.5894029291282762 -0.8078392087135956 0  -0.5731210324752977 -0.8194707329334274 0  -0.5566096624511304 -0.8307741472061095 0  -0.5398754300847344 -0.8417449257291802 0  -0.5229250356374798 -0.8523786758850437 0  -0.5057652659204195 -0.8626711399997379 0  -0.4884029915768943 -0.872618197047678 0  -0.4708451643315825 -0.8822158643016828 0  -0.4530988142070805 -0.8914602989276289 0  -0.4351710467091333 -0.900347799523094 0  -0.4170690399816467 -0.9088748075993677 0  -0.3988000419326073 -0.9170379090062475 0  -0.3803713673320777 -0.9248338352990366 0  -0.3617903948834162 -0.9322594650472055 0  -0.3430645642688988 -0.9393118250841893 0  -0.3242013731709283 -0.9459880916978207 0  -0.3052083742700169 -0.9522855917609241 0  -0.2860931722207477 -0.9582018038016155 0  -0.2668634206069305 -0.963734359012881 0  -0.2475268188771631 -0.968881042201029 0  -0.2280911092620301 -0.9736397926726376 0  -0.2085640736741706 -0.9780087050596407 0  -0.1889535305924619 -0.9819860300822225 0  -0.1692673319315544 -0.9855701752492173 0  -0.1495133598980269 -0.9887597054957302 0  -0.1296995238344092 -0.9915533437577262 0  -0.1098337570523396 -0.9939499714833577 0  -0.08992401365612945 -0.9959486290808237 0  -0.06997826535799691 -0.9975485163025836 0  -0.05000449828625168 -0.9987489925657699 0  -0.0300107
[...]
<PointData  Scalars="Displacement"> 
<DataArray  type="Float64"  Name="Displacement"  format="ascii">0.0000000000000000e+00  0.0000000000000000e+00  0.0000000000000000e+00  0.0000000000000000e+00  0.0000000000000000e+00  0.0000000000000000e+00  0.0000000000000000e+00  0.0000000000000000e+00  0.0000000000000000e+00  0.0000000000000000e+00  0.0000000000000000e+00  0.0000000000000000e+00  0.0000000000000000e+00  0.0000000000000000e+00  0.0000000000000000e+00  0.0000000000000000e+00  0.0000000000000000e+00  0.0000000000000000e+00  0.0000000000000000e+00  0.0000000000000000e+00  0.0000000000000000e+00  0.0000000000000000e+00  0.0000000000000000e+00  0.0000000000000000e+00  0.0000000000000000e+00  0.0000000000000000e+00  0.0000000000000000e+00  0.0000000000000000e+00  0.0000000000000000e+00  0.0000000000000000e+00  0.0000000000000000e+00  0.0000000000000000e+00  0.0000000000000000e+00  0.0000000000000000e+00  0.0000000000000000e+00  0.0000000000000000e+00  0.0000000000000000e+00  0.0000000000000000e+00  0.0000000000000000e+00  0.0000000000000000e+00  0.0000000000000000e+00  0.0000000000000000e+00  0.0000000000000000e+00  0.0000000000000000e+00  0.0000000000000000e+00  0.0000000000000000e+00  0.0000000000000000e+00  0.0000000000000000e+00  0.0000000000000000e+00  0.0000000000000000e+00  0.0000000000000000e+00  0.0000000000000000e+00  0.0000000000000000e+00  0.0000000000000000e+00  0.0000000000000000e+00  0.0000000000000000e+00  0.0000000000000000e+00  0.0000000000000000e+00  0.0000000000000000e+00  0.0000000000000000e+00  0.0000000000000000e+00  0.0000000000000000e+00  0.0000000000000000e+00  0.0000000000000000e+00  0.0000000000000000e+00  0.0000000000000000e+00  0.0000000000000000e+00  0.0000000000000000e+00  0.0000000000000000e+00  0.0000000000000000e+00  0.0000000000000000e+00  0.0000000000000000e+00  0.0000000000000000e+00  0.0000000000000000e+00  0.0000000000000000e+00  0.0000000000000000e+00  0.0000000000000000e+00  0.0000000000000000e+00  0.0000000000000000e+00  0.0000000000000000e+00  0.0000000000000000e+00  0.0000000000000000e+00  0.0000000000000000e+00  0.0000000000000000e+00  0.0000000000000000e+00  0.0000000000000000e+00  0.0000000000000000e+00  0.0000000000000000e+00  0.0000000000000000e+00  0.0000000000000000e+00  0.0000000000000000e+00  0.0000000000000000e+00  0.0000000000000000e+00  0.0000000000000000e+00  0.0000000000000000e+00  0.0000000000000000e+00  0.0000000000000000e+00  0.0000000000000000e+00  0.0000000000000000e+00  0.0000000000000000e+00  0.0000000000000000e+00  0.0000000000000000e+00  0.0000000000000000e+00  0.0000000000000000e+00  0.0000000000000000e+00  0.0000000000000000e+00  0.0000000000000000e+00  0.0000000000000000e+00  0.0000000000000000e+00  0.0000000000000000e+00  0.0000000000000000e+00  0.0000000000000000e+00  0.0000000000000000e+00  0.0000000000000000e+00  0.0000000000000000e+00  0.0000000000000000e+00  0.0000000000000000e+00  0.0000000000000000e+00  0.0000000000000000e+00  0.0000000000000000e+00  0.0000000000000000e+00  0.0000000000000000e+00  0.0000000000000000e+00  0.0000000000000000e+00  0.0000000000000000e+00  0.0000000000000000e+00  0.0000000000000000e+00  0.0000000000000000e+00  0.0000000000000000e+00  0.0000000000000000e+00  0.0000000000000000e+00  0.0000000000000000e+00  0.0000000000000000e+00  0.0000000000000000e+00  0.0000000000000000e+00  0.0000000000000000e+00  0.0000000000000000e+00  0.0000000000000000e+00  0.0000000000000000e+00  0.0000000000000000e+00  0.0000000000000000e+00  0.0000000000000000e+00  0.0000000000000000e+00  0.0000000000000000e+00  0.0000000000000000e+00  0.0000000000000000e+00  0.0000000000000000e+00  0.0000000000000000e+00  0.0000000000000000e+00  0.0000000000000000e+00  0.0000000000000000e+00  0.0000000000000000e+00  0.0000000000000000e+00  0.0000000000000000e+00  0.0000000000000000e+00  0.0000000000000000e+00  0.0000000000000000e+00  0.0000000000000000e+00  0.0000000000000000e+00  0.0000000000000000e+00  0.0000000000000000e+00  0.0000000000000000e+00  0.0000000000000000e+00  0.0000000000000000e+00  0.0000000000000000e+00  0.0000000000000000e+00  0.0000000000000000e+00  0.0000000000000000e+00  0.0000000000000000e+00  0.0000000000000000e+00  0.0000000000000000e+00  0.0000000000000000e+00  0.0000000000000000e+00  0.0000000000000000e+00  0.0000000000000000e+00  0.0000000000000000e+00  0.0000000000000000e+00  0.0000000000000000e+00  0.0000000000000000e+00  0.0000000000000000e+00  0.0000000000000000e+00  0.0000000000000000e+00  0.0000000000000000e+00  0.0000000000000000e+00  0.0000000000000000e+00  0.0000000000000000e+00  0.0000000000000000e+00  0.0000000000000000e+00  0.0000000000000000e+00  0.0000000000000000e+00  0.0000000000000000e+00  0.0000000000000000e+00  0.0000000000000000e+00  0.0000000000000000e+00  0.0000000000000000e+00  0.0000000000000000e+00  0.0000000000000000e+00  0.0000000000000000e+00  0.0000000000000000e+00  0.0000000000000000e+00  0.0000000000000000e+00  0.0000000000000000e+00  0.0000000000000000e+00  0.0000000000000000e+00  0.0000000000000000e+00  0.0000000000000000e+00  0.0000000000000000e+00  0.0000000000000000e+00  0.0000000000000000e+00  0.0000000000000000e+00  0.0000000000000000e+00  0.0000000000000000e+00  0.0000000000000000e+00  0.0000000000000000e+00  0.0000000000000000e+00  0.0000000000000000e+00  0.0000000000000000e+00  0.0000000000000000e+00  0.0000000000000000e+00  0.0000000000000000e+00  0.0000000000000000e+00  0.0000000000000000e+00  0.0000000000000000e+00  0.0000000000000000e+00  0.0000000000000000e+00  0.0000000000000000e+00  0.0000000000000000e+00  0.0000000000000000e+00  0.0000000000000000e+00  0.0000000000000000e+00  0.0000000000000000e+00  0.0000000000000000e+00  0.0000000000000000e+00  0.0000000000000000e+00  0.0000000000000000e+00  0.0000000000000000e+00  0.0000000000000000e+00  0.0000000000000000e+00  0.0000000000000000e+00  0.0000000000000000e+00  0.0000000000000000e+00  0.0000000000000000e+00  0.0000000000000000e+00  0.0000000000000000e+00  0.0000000000000000e+00  0.0000000000000000e+00  0.0000000000000000e+00  0.0000000000000000e+00  0.0000000000000000e+00  0.0000000000000000e+00  0.0000000000000000e+00  0.0000000000000000e+00  0.0000000000000000e+00  0.0000000000000000e+00  0.0000000000000000e+00  0.0000000000000000e+00  0.0000000000000000e+00  0.0000000000000000e+00  0.0000000000000000e+00  0.0000000000000000e+00  0.0000000000000000e+00  0.0000000000000000e+00  0.0000000000000000e+00  0.0000000000000000e+00  0.0000000000000000e+00  0.0000000000000000e+00  0.0000000000000000e+00  0.0000000000000000e+00  0.0000000000000000e+00  0.0000000000000000e+00  0.0000000000000000e+00  0.0000000000000000e+00  0.0000000000000000e+00  0.0000000000000000e+00  0.0000000000000000e+00  0.0000000000000000e+00  0.0000000000000000e+00  0.0000000000000000e+00  0.0000000000000000e+00  0.0000000000000000e+00  0.0000000000000000e+00  0.0000000000000000e+00  0.0000000000000000e+00  0.0000000000000000e+00  0.0000000000000000e+00  0.0000000000000000e+00  0.0000000000000000e+00  0.0000000000000000e+00  0.0000000000000000e+00  0.0000000000000000e+00  0.0000000000000000e+00  0.0000000000000000e+00  0.0000000000000000e+00  0.0000000000000000e+00  0.0000000000000000e+00  0.0000000000000000e+00  0.0000000000000000e+00  0.0000000000000000e+00  0.0000000000000000e+00  0.0000000000000000e+00  0.0000000000000000e+00  0.0000000000000000e+00  0.0000000000000000e+00  0.0000000000000000e+00  0.0000000000000000e+00  0.0000000000000000e+00  0.0000000000000000e+00  0.0000000000000000e+00  0.0000000000000000e+00  0.0000000000000000e+00  0.0000000000000000e+00  0.0000000000000000e+00  0.0000000000000000e+00  0.0000000000000000e+00  5.0980364914566023e-01  -2.0278736845929929e-04  -1.2691830263537827e-04  -6.7425434553735329e-04  -8.1019732415289717e-05  -5.3658926154873695e-04  -1.0504981583815616e-04  4.1778121402510834e-04  3.6527812692270945e-04  2.3937994119769035e-04  1.3981900455620178e-04  -2.0727493775232603e-01  1.7907254097552938e-04  2.7352268450507929e-05  -2.1364761408683738e-01  -2.1558985071431658e-01  5.0471954138908476e-04  6.7138819949243166e-05  -7.4124343425468914e-05  1.1665558036027085e-04  2.2949568428290749e-04  1.9903398569468250e-04  1.7070782966381113e-04  -7.4318578320035744e-02  -7.3598943817149681e-02  -1.9465598561672093e-01  2.8241554623500151e-04  1.3625214354571756e-04  3.4401120345336068e-04  -3.6770348852449607e-03  6.1361066910092156e-05  -2.1248522826970978e-01  -1.3452106357867427e-01  -1.1243110267044661e-03  2.0857501148416658e-04  1.7857702429528340e-05  -5.5016784345398604e-05  3.3819550651789751e-04  2.1623442237662672e-04  3.4931173537829601e-04  2.8809503702080476e-04  2.8029446764762781e-04  5.3140356649445341e-04  -7.1672594691591013e-02  3.8464754301871187e-04  -1.6132862536305778e-04  3.1582692769156751e-04  5.5627550764493700e-04  1.9504824949019347e-04  1.9356981714905392e-04  2.2940459535292500e-04  1.8122591855484411e-04  2.2597209745686510e-04  -5.4842940837373502e-03  2.9652550532811337e-06  -3.8101698805172890e-02  2.6992012919830786e-04  1.7317786205871526e-04  -1.8520698423283960e-01  2.7106127330617550e-04  3.2005976953378016e-04  3.0704595317994095e-05  2.5350071900265126e-05  1.0878429329364236e-04  -1.8507444059896719e-01  -1.9134079255602066e-01  -8.8937916245363693e-02  -5.9065150502643363e-03  -9.6316646027988437e-02  3.8691879365211991e-02  -1.8754973583922846e-01  6.9784808309510669e-04  6.3011472290078262e-04  4.9695429298682867e-04  4.5841419703998739e-04  -1.4781882258259424e-01  1.8708727191501240e-04  -4.3873059109804088e-02  -1.5143510408304400e-01  3.1974152736270457e-04  8.2723687442773686e-05  -6.5181659683646920e-02  1.7919092778559485e-04  -1.0900493836562968e-04  2.2449634801244297e-04  8.1759264803129228e-02  -3.9615727604150662e-05  -1.0192606244661418e-04  -3.5918262240933820e-05  -1.0174520896712956e-01  2.3139371384678381e-04  -6.9389263882429806e-05  5.3628553390483967e-04  1.4194030019428001e-04  2.0079587528820059e-04  -5.3748696058703756e-02  1.1026418056912088e-04  3.7440732839865240e-04  9.3506274207655817e-05  -8.5018694037098728e-06  2.4128489856759596e-04  3.8387436970995078e-04  -6.1191876591532344e-05  -1.1226009872333569e-02  4.2259274041300381e-04  3.9556881043376410e-04  -2.2703853308928150e-02  2.7542955020816342e-04  1.8734585179177980e-04  5.0806831665868261e-05  -2.9994820234992742e-02  1.7290058811469746e-04  -1.0211428718780702e-04  6.9560293323416087e-04  3.4223563026127436e-04  6.4989168875213474e-04  1.8600090635144157e-04  3.3583908801196421e-05  8.0008291554460164e-05  4.1024961632241293e-02  -1.4387700481614234e-02  -5.0431915579370683e-06  -2.1532626477151295e-01  2.9146683631203898e-04  2.2677561499032938e-04  3.4606108999030079e-04  2.0153304775211638e-05  4.7734548083990587e-05  3.8824273770408333e-04  3.3931686233615429e-04  1.3080423720799702e-04  -8.0805961791626291e-05  3.0593648605394073e-04  -4.7807124976544050e-03  2.5604545667781258e-04  1.0230822378880006e-05  2.6711513864945596e-04  -2.1479509837724145e-01  -1.0667201739033555e-01  -1.9585737491638691e-01  1.9584720489436264e-01  -2.1452108312680593e-01  1.9939540573746272e-04  -3.1382005224018475e-02  5.7751549965498158e-04  1.6881260812960238e-04  4.3681494041624769e-04  -2.1018155206101088e-01  -7.7754753035009186e-02  3.3853633532036079e-04  2.0640068130598231e-04  -4.9226121831154634e-05  -1.0151001754747740e-01  1.1064297249526535e-04  2.2691914441109806e-05  3.4000407066733497e-05  1.7261167059944853e-04  2.5806638505188490e-04  -7.9058416718449611e-05  1.4116182354531826e-04  1.2957234005942428e-04  -1.4259194598287953e-04  6.9605420161983624e-05  -1.4342246654690466e-05  6.3203365560527078e-05  9.0574116754760201e-05  1.7864465174067214e-04  4.3845725960031352e-05  3.3191953752559832e-04  3.1620536287686328e-04  4.6293330364823878e-04  2.2485700415206417e-01  3.9938127885523819e-04  -8.4679606282904177e-02  9.2379227637859644e-05  -7.6331992197970766e-03  -7.0043231084004971e-06  2.3950287652701378e-04  -1.3817089190089124e-04  -2.2551817735841774e-03  3.3479250169789692e-04  2.2242384403577855e-04  3.8712359327096909e-04  -1.8300465578527997e-01  4.2228117907145357e-04  4.8747499266031295e-04  2.7306106643996644e-04  -1.1845681231073318e-03  -1.0178739590735901e-04  1.7595414961720001e-04  -4.8569685786667365e-05  -7.4187950029171876e-02  1.6782323381795379e-04  2.1922779164218965e-05  1.8485180793547225e-04  -1.7348201126840754e-01  1.6823942647508825e-04  1.9949429373021865e-04  -3.4517628485077658e-04  2.5707096641323771e-04  3.1760472887147026e-04  5.1388351119536753e-04  -7.2268488729464175e-04  1.9915345255391782e-04  8.9211330447151640e-04  1.9107494769371960e-04  1.9760536501472266e-04  -2.0349861922009815e-01  -2.5398514049775860e-05  -8.0910608606523528e-06  1.3932875454228085e-04  -1.0263941659371920e-01  2.4359196820875703e-01  5.0404345324497920e-05  -9.0412189794762793e-05  2.6700176562143035e-04  -2.7975669952884316e-03  2.9928008214079508e-06  3.7270869549801229e-04  9.4238961738331295e-05  1.8914655964596388e-04  3.6749022296500913e-04  -4.3040160089321419e-02  2.4001527160860635e-04  2.0206793923175918e-04  -1.8037732611243394e-04  -1.4675993086334338e-04  1.1026114348587911e-04  -9.2474432228801547e-05  -6.1713277077084418e-05  1.6115874902251272e-04  -8.1864843805098223e-05  7.2314223352148394e-05  3.5853304215991615e-04  1.9567465270758255e-04  -7.7030001859253435e-03  2.8388122670419371e-04  -2.4625667375905684e-05  1.4789757567685715e-04  -2.1084841906372528e-01  -1.9793971915537278e-01  1.7237688387725870e-04  5.8984315868942482e-04  1.6235319682553979e-04  -2.6492145442225541e-05  1.9585453828954388e-04  1.9266400213315639e-04  1.8702880667000372e-04  -1.1306510945175061e-01  -2.1715325309084139e-03  4.1824063764016312e-04  1.9413242968255968e-04  -2.1472932554444851e-01  2.4171409255155635e-01  2.6971515838515197e-06  -6.9132805839168046e-02  -9.5551389105145111e-05  3.2280237806482052e-04  1.2554915960005276e-04  2.2035369067070811e-04  1.5557531048762809e-04  4.1055188362647087e-04  3.0033574029152626e-04  4.3714007974827518e-04  -3.6867189976194877e-03  -5.6647188877993145e-02  -7.3513386768206802e-05  9.2031019592344511e-05  1.6001377703592736e-04  2.9104592973704303e-04  -3.5544354662504772e-05  -1.0565937103442334e-01  -5.2742341573016075e-03  4.2132960991773157e-04  1.1444166745998844e-05  3.1579734986172795e-04  -1.5957352084514709e-01  -1.8216971398605039e-01  -9.5189122481637481e-02  -1.3973861099299092e-01  -1.9464719689598114e-01  -1.9087458726901585e-01  -1.6686614353239651e-01  6.1136975025553140e-05  2.8736363190453923e-04  2.6282648882046601e-04  -1.9644858856133079e-01  8.2585144671260468e-05  1.1617746662296541e-04  -4.3307153419319011e-02  -1.7440337274088127e-01  -5.7859933309257084e-03  5.1236533386541272e-04  3.4979840132206842e-04  -1.3047468676273463e-01  1.0834233389630899e-04  4.6138025602579513e-04  2.5346186710906849e-04  -4.9246802054261523e-05  4.1254606430766109e-06  -4.9542801759556845e-02  2.7375659211372017e-01  -1.8187299913572397e-01  -2.0429332825880339e-01  4.5541183064282689e-04  6.2352354938973386e-04  1.3050287064456212e-04  5.4724633735492138e-04  2.9691571403839387e-04  3.7663750792061874e-04  4.5495276744730661e-04  1.8903432747615950e-04  -1.9507564720423395e-01  2.7691026885220900e-04  -1.6680722440634074e-01  -1.9561769212110230e-01  6.4949796050766241e-04  -3.6608223055648129e-05  3.7289766687020014e-04  -2.2189423259751795e-05  -1.6813822492228419e-04  4.4151192916691085e-04  3.5586126253465793e-05  -1.4145487433679399e-01  2.5321076725884806e-04  -5.6087286077921104e-05  -2.2700824149074575e-04  -4.2083320803359817e-02  -1.0731689578835719e-01  -2.1364482499312146e-01  9.5378760191086221e-05  1.8269860428221264e-04  2.1855522555248023e-04  2.3565685763723575e-04  -1.5592535247926037e-01  -4.9382306964402745e-05  -3.2141682021260252e-04  -1.4281652058544095e-01  -1.9329682218721819e-01  2.3503083546237049e-04  1.6317928780658616e-04  -4.6213505542483933e-04  1.6344307393971249e-04  1.6924047290840013e-04  1.3133978972772379e-04  -7.1549126229115690e-05  9.4478625146342759e-05  9.2433904491392822e-05  1.6753143711735560e-05  9.1625684118597537e-06  4.0260110051453581e-04  3.8204181642292748e-05  -9.1913934988577852e-05  1.5398877281930705e-05  2.9718047210983535e-04  2.7965249590243833e-04  4.5848165444712069e-04  3.1356170726176147e-01  1.8511770850634268e-04  -4.2514411101268773e-02  -1.2169817808862693e-01  1.1449613660099911e-05  7.9582031840909098e-05  5.6643855274806938e-04  -1.7644808804007518e-04  -1.7632569193992381e-01  3.9959092663021958e-05  4.4945606100435287e-04  1.5586972038023980e-01  3.7638014078878156e-04  1.0962164437103925e-04  2.7223593079931139e-04  8.1864149514720253e-05  -1.0707624410720849e-01  -1.3332978104272482e-02  2.0668158797777970e-04  1.0295021393747586e-04  1.0920789978910691e-02  5.1245226436994319e-04  -1.5933511353452150e-04  1.2011548351654089e-04  1.3009527358778212e-04  -5.3058174380659014e-05  -3.9256063639162600e-04  9.3419358683088853e-05  -1.8844335864304188e-01  7.2776330299623951e-05  3.5125141177498722e-04  2.2305397764051547e-04  -3.7322973973007004e-02  8.6435099474884596e-04  1.3205374361068812e-05  3.3068375472827490e-04  -1.0770120210926277e-04  3.5578077770432280e-04  -3.8404172006098948e-02  9.5366666366084824e-05  1.6996697017491343e-04  4.2977965657039837e-05  1.6817164358775335e-04  2.1739412798457659e-04  5.8102323119278026e-04  4.0999989209841005e-05  -5.6377545551395828e-03  2.5170054986612767e-04  4.8598974837213335e-04  5.1769765314315286e-04  -8.7209497551317466e-07  3.4516654854402671e-04  4.6700484634925374e-05  1.8711757472104904e-04  3.0761399861572048e-04  -1.2737201612286872e-02  -1.0116298821201682e-01  -1.6379428410439736e-01  -9.1907060720284012e-02  -4.2773377553377056e-05  -2.1380637985127549e-01  -1.1364087358002129e-03  3.2605150796490283e-04  1.9574223483983592e-04  2.8836619384772051e-04  2.4396643992402963e-04  1.5596658295244972e-04  7.8297896482559492e-05  -8.1260604883127419e-02  3.7100656279467637e-04  1.7907468182203680e-04  1.2238863739288167e-05  1.5740973702319170e-04  3.5088284913544458e-04  1.3360919863722421e-04  2.5320063719152928e-05  9.5165873921978865e-05  -2.9891717287773502e-04  3.5974746368791381e-05  3.6866947453150932e-04  2.8041148583627295e-04  -6.1138284864303198e-04  5.8536473335366968e-04  2.0754679690041018e-04  1.6953712056617874e-04  2.4988798346236099e-04  -3.0784780972980083e-02  4.8222715127748636e-04  -2.0631094220558074e-02  9.6848914904377375e-05  1.1675550657848466e-01  2.0100667739103808e-04  -3.3636923534992818e-04  8.7445285037620268e-04  -5.4032111184346712e-02  -8.7092324979733769e-05  -2.0049006489794051e-04  -8.3508624441436548e-05  -2.1490532469183379e-01  3.7149163033248396e-04  -2.1869616247180705e-04  -7.4512547328771774e-04  3.1072618552809752e-05  3.4815978335506133e-04  1.2720427057611182e-04  -1.8481032409813802e-01  -1.7895631101657333e-01  -1.7572929606124450e-03  2.0769926886574054e-04  1.2764812971556076e-04  -6.5750066103993751e-05  2.5792123170395435e-04  1.1974560519179530e-04  3.2373474807913309e-04  2.8938852530400051e-04  -1.6764983963064458e-03  1.3732543135998890e-04  9.2407028326709845e-05  -1.7973438842480965e-01  2.0942243975789320e-04  3.5167783936555525e-04  3.8626440415019664e-04  5.7892381702788563e-04  1.4586949018853887e-04  3.9078567681019176e-04  6.3420928075271282e-05  -5.8394645910670534e-06  2.8401655944313786e-04  1.9563956809513940e-04  1.3141893700626732e-04  -1.3586393066334840e-01  1.7074082549704009e-04  2.6026874092460164e-04  -1.3031660852377581e-04  -2.2704140555886165e-02  2.4169037510581875e-04  -1.6956988073279269e-01  3.4769112227099648e-05  -1.9575159446558008e-02  3.5269786596980928e-04  3.8878159738245203e-04  -6.1661439328640542e-05  2.3376004317622606e-04  1.9581294992516686e-04  1.3392015464027760e-04  1.9074827137892722e-04  5.5205003937331266e-04  2.9116517418683316e-04  1.0956082103007937e-04  -2.0967906298897314e-04  3.272