<?xml version="1.0"?>
<VTKFile type="UnstructuredGrid"  version="0.1"  >
<UnstructuredGrid>
<Piece  NumberOfPoints="20054" NumberOfCells="39478">
<Points>
<DataArray  type="Float64"  NumberOfComponents="3"  format="ascii">1 0 0  0.9997998037428526 0.02000880895389431 0  0.9991992951284931 0.04000960653046352 0  0.9981987145960756 0.05999438456007805 0  0.9967984627705549 0.07995514128721501 0  0.9949991003022806 0.09988388457430118 0  0.9928013476425149 0.1197726351017051 0  0.9902060847549715 0.139613429562597 0  0.987214350763483 0.1593983238513969 0  0.9838273435359444 0.1791193962445356 0  0.9800464192046954 0.198768750572253 0  0.9758730916235354 0.2183385193801655 0  0.9713090317615876 0.237820867079336 0  0.9663560670342555 0.2572079930835849 0  0.9610161805715396 0.2764921349327862 0  0.9552915104240066 0.2956655714008991 0  0.9491843487067304 0.3147206255874884 0  0.9426971406815462 0.3336496679914983 0  0.9358324837779861 0.3524451195660473 0  0.9285931265532873 0.3710994547530225 0  0.9209819675918909 0.3896052044962556 0  0.9130020543448703 0.4079549592320781 0  0.9046565819097542 0.4261413718560547 0  0.8959488917512338 0.4441571606647087 0  0.8868824703632656 0.4619951122710622 0  0.8774609478731046 0.4796480844928215 0  0.8676880965878291 0.4971090092120542 0  0.8575678294839372 0.5143708952052096 0  0.8471041986406199 0.5314268309423539 0  0.8363013936173391 0.5482699873544935 0  0.8251637397763597 0.5648936205678837 0  0.8136956965509062 0.5812910746042258 0  0.8019018556596399 0.5974557840456699 0  0.7897869392681683 0.6133812766635599 0  0.777355798098326 0.6290611760098652 0  0.7646134094859813 0.6444892039702628 0  0.7515648753881492 0.6596591832778468 0  0.7382154203402046 0.6745650399864606 0  0.7245703893640189 0.6892008059026586 0  0.7106352458278521 0.7035606209753273 0  0.6964155692588616 0.7176387356420051 0  0.6819170531091018 0.7314295131309636 0  0.6671455024759069 0.7449274317181303 0  0.6521068317775753 0.7581270869379442 0  0.6368070623852795 0.7710231937472638 0  0.6212523202121545 0.7836105886414595 0  0.6054488332605282 0.795884231721841 0  0.5894029291282759 0.8078392087135958 0  0.5731210324752972 0.8194707329334278 0  0.5566096624511305 0.8307741472061095 0  0.5398754300847343 0.8417449257291802 0  0.5229250356374803 0.8523786758850435 0  0.5057652659204196 0.8626711399997378 0  0.4884029915768944 0.8726181970476778 0  0.4708451643315825 0.8822158643016828 0  0.45309881420708 0.8914602989276292 0  0.4351710467091336 0.9003477995230937 0  0.4170690399816468 0.9088748075993677 0  0.398800041932607 0.9170379090062476 0  0.3803713673320772 0.9248338352990368 0  0.3617903948834157 0.9322594650472057 0  0.3430645642688987 0.9393118250841893 0  0.3242013731709288 0.9459880916978206 0  0.3052083742700172 0.952285591760924 0  0.2860931722207478 0.9582018038016155 0  0.2668634206069304 0.963734359012881 0  0.2475268188771628 0.9688810422010291 0  0.2280911092620296 0.9736397926726377 0  0.2085640736741707 0.9780087050596407 0  0.1889535305924618 0.9819860300822225 0  0.1692673319315541 0.9855701752492174 0  0.1495133598980264 0.9887597054957302 0  0.1296995238344084 0.9915533437577263 0  0.1098337570523395 0.9939499714833577 0  0.08992401365612977 0.9959486290808237 0  0.06997826535799723 0.9975485163025836 0  0.05000449828625179 0.9987489925657699 0  0.03001070978771124 0.9995495772086734 0  0.01000490522562346 0.9999499496831961 0  -0.01000490522562333 0.9999499496831961 0  -0.03001070978771133 0.9995495772086734 0  -0.05000449828625144 0.9987489925657699 0  -0.06997826535799688 0.9975485163025836 0  -0.08992401365612987 0.9959486290808237 0  -0.1098337570523394 0.9939499714833577 0  -0.1296995238344082 0.9915533437577263 0  -0.1495133598980262 0.9887597054957303 0  -0.1692673319315537 0.9855701752492174 0  -0.1889535305924614 0.9819860300822226 0  -0.2085640736741705 0.9780087050596407 0  -0.2280911092620295 0.9736397926726377 0  -0.2475268188771627 0.9688810422010291 0  -0.2668634206069302 0.9637343590128811 0  -0.2860931722207475 0.9582018038016156 0  -0.3052083742700173 0.9522855917609239 0  -0.3242013731709289 0.9459880916978205 0  -0.3430645642688986 0.9393118250841894 0  -0.3617903948834154 0.9322594650472058 0  -0.380371367332077 0.924833835299037 0  -0.3988000419326071 0.9170379090062476 0  -0.4170690399816465 0.9088748075993678 0  -0.4351710467091335 0.9003477995230939 0  -0.4530988142070799 0.8914602989276292 0  -0.4708451643315824 0.8822158643016829 0  -0.4884029915768945 0.8726181970476778 0  -0.5057652659204197 0.8626711399997378 0  -0.5229250356374801 0.8523786758850437 0  -0.5398754300847342 0.8417449257291804 0  -0.5566096624511303 0.8307741472061098 0  -0.5731210324752971 0.8194707329334279 0  -0.589402929128276 0.8078392087135957 0  -0.6054488332605281 0.7958842317218411 0  -0.6212523202121542 0.7836105886414597 0  -0.6368070623852793 0.7710231937472639 0  -0.652106831777575 0.7581270869379444 0  -0.6671455024759069 0.7449274317181304 0  -0.6819170531091018 0.7314295131309636 0  -0.6964155692588616 0.7176387356420052 0  -0.7106352458278521 0.7035606209753273 0  -0.7245703893640187 0.6892008059026588 0  -0.7382154203402043 0.6745650399864608 0  -0.751564875388149 0.6596591832778469 0  -0.7646134094859813 0.6444892039702628 0  -0.7773557980983258 0.6290611760098654 0  -0.7897869392681683 0.6133812766635599 0  -0.8019018556596398 0.59745578404567 0  -0.8136956965509062 0.5812910746042258 0  -0.8251637397763595 0.5648936205678839 0  -0.836301393617339 0.5482699873544935 0  -0.8471041986406197 0.5314268309423542 0  -0.8575678294839372 0.5143708952052097 0  -0.8676880965878292 0.497109009212054 0  -0.8774609478731045 0.4796480844928216 0  -0.8868824703632656 0.4619951122710621 0  -0.8959488917512338 0.4441571606647088 0  -0.904656581909754 0.426141371856055 0  -0.9130020543448703 0.4079549592320783 0  -0.920981967591891 0.3896052044962555 0  -0.9285931265532872 0.3710994547530226 0  -0.9358324837779861 0.3524451195660473 0  -0.9426971406815462 0.3336496679914984 0  -0.9491843487067303 0.3147206255874888 0  -0.9552915104240065 0.2956655714008993 0  -0.9610161805715396 0.2764921349327862 0  -0.9663560670342555 0.2572079930835851 0  -0.9713090317615876 0.2378208670793361 0  -0.9758730916235353 0.2183385193801658 0  -0.9800464192046954 0.198768750572253 0  -0.9838273435359444 0.1791193962445354 0  -0.987214350763483 0.159398323851397 0  -0.9902060847549714 0.1396134295625972 0  -0.9928013476425149 0.1197726351017052 0  -0.9949991003022804 0.09988388457430147 0  -0.9967984627705549 0.07995514128721509 0  -0.9981987145960756 0.05999438456007793 0  -0.9991992951284931 0.04000960653046362 0  -0.9997998037428526 0.02000880895389464 0  -1 1.224646799147353e-16 0  -0.9997998037428526 -0.0200088089538944 0  -0.9991992951284931 -0.04000960653046338 0  -0.9981987145960756 -0.05999438456007812 0  -0.9967984627705549 -0.07995514128721484 0  -0.9949991003022806 -0.09988388457430078 0  -0.9928013476425149 -0.1197726351017049 0  -0.9902060847549715 -0.1396134295625965 0  -0.9872143507634831 -0.1593983238513963 0  -0.9838273435359444 -0.1791193962445356 0  -0.9800464192046953 -0.1987687505722532 0  -0.9758730916235354 -0.2183385193801655 0  -0.9713090317615876 -0.2378208670793363 0  -0.9663560670342556 -0.2572079930835848 0  -0.9610161805715396 -0.276492134932786 0  -0.9552915104240066 -0.2956655714008991 0  -0.9491843487067305 -0.3147206255874881 0  -0.9426971406815464 -0.3336496679914978 0  -0.9358324837779862 -0.3524451195660471 0  -0.9285931265532875 -0.371099454753022 0  -0.9209819675918909 -0.3896052044962557 0  -0.9130020543448704 -0.407954959232078 0  -0.9046565819097541 -0.4261413718560548 0  -0.8959488917512338 -0.4441571606647086 0  -0.8868824703632655 -0.4619951122710623 0  -0.8774609478731046 -0.4796480844928214 0  -0.8676880965878293 -0.4971090092120538 0  -0.8575678294839373 -0.5143708952052095 0  -0.84710419864062 -0.5314268309423537 0  -0.8363013936173395 -0.5482699873544929 0  -0.8251637397763596 -0.5648936205678838 0  -0.8136956965509061 -0.5812910746042259 0  -0.8019018556596399 -0.5974557840456699 0  -0.7897869392681682 -0.61338127666356 0  -0.777355798098326 -0.6290611760098652 0  -0.7646134094859816 -0.6444892039702625 0  -0.7515648753881492 -0.6596591832778468 0  -0.7382154203402048 -0.6745650399864603 0  -0.7245703893640192 -0.6892008059026583 0  -0.7106352458278522 -0.7035606209753272 0  -0.6964155692588621 -0.7176387356420046 0  -0.6819170531091017 -0.7314295131309637 0  -0.667145502475907 -0.7449274317181303 0  -0.6521068317775756 -0.758127086937944 0  -0.6368070623852792 -0.7710231937472641 0  -0.6212523202121544 -0.7836105886414596 0  -0.6054488332605283 -0.795884231721841 0  -0.5894029291282762 -0.8078392087135956 0  -0.5731210324752977 -0.8194707329334274 0  -0.5566096624511304 -0.8307741472061095 0  -0.5398754300847344 -0.8417449257291802 0  -0.5229250356374798 -0.8523786758850437 0  -0.5057652659204195 -0.8626711399997379 0  -0.4884029915768943 -0.872618197047678 0  -0.4708451643315825 -0.8822158643016828 0  -0.4530988142070805 -0.8914602989276289 0  -0.4351710467091333 -0.900347799523094 0  -0.4170690399816467 -0.9088748075993677 0  -0.3988000419326073 -0.9170379090062475 0  -0.3803713673320777 -0.9248338352990366 0  -0.3617903948834162 -0.9322594650472055 0  -0.3430645642688988 -0.9393118250841893 0  -0.3242013731709283 -0.9459880916978207 0  -0.3052083742700169 -0.9522855917609241 0  -0.2860931722207477 -0.9582018038016155 0  -0.2668634206069305 -0.963734359012881 0  -0.2475268188771631 -0.968881042201029 0  -0.2280911092620301 -0.9736397926726376 0  -0.2085640736741706 -0.9780087050596407 0  -0.1889535305924619 -0.9819860300822225 0  -0.1692673319315544 -0.9855701752492173 0  -0.1495133598980269 -0.9887597054957302 0  -0.1296995238344092 -0.9915533437577262 0  -0.1098337570523396 -0.9939499714833577 0  -0.08992401365612945 -0.9959486290808237 0  -0.06997826535799691 -0.9975485163025836 0  -0.05000449828625168 -0.9987489925657699 0  -0.030010709787
[...]
<PointData  Scalars="Displacement"> 
<DataArray  type="Float64"  Name="Displacement"  format="ascii">-1.4403017691294400e+11  3.3566269784437195e+10  -1.7585788324299268e+11  -1.0573844363529254e+12  -7.7724116914431726e+11  -9.0176036586274023e+11  -7.0687285240685822e+10  5.4794357478513617e+11  -9.2751618242119531e+11  9.4461782308859546e+11  -1.3753777493343390e+11  -3.7170911679605762e+11  1.7141081254113904e+11  2.2180366226856186e+11  2.0525183394446143e+11  -3.6680498892078601e+11  4.9971497160246985e+11  2.2081815492772964e+12  9.3000441384249475e+11  -4.7838539893917510e+12  -6.3155873037318623e+12  6.3430559597771855e+12  -6.2900320207911035e+12  1.4443067954057957e+12  -1.2915355085930510e+12  -1.5021953840877407e+12  2.6878326205740171e+12  -6.7382637057729053e+11  -2.5681914370052109e+09  -5.3928821678264124e+11  -2.2144916927132501e+11  -6.8937864088575043e+10  1.8457567458197531e+11  4.7247450436551556e+11  -7.5840757414278333e+11  -1.2866618745313855e+11  3.8778830223650562e+11  -3.9345770231224353e+11  3.4032737463699353e+11  1.5676126254275660e+10  2.6506727370894859e+10  -3.4312148339844897e+11  -4.5185558076156848e+11  3.9301813473674155e+12  1.1658094716099868e+12  8.3129813351713440e+10  3.9070550255382825e+11  1.6957512344973491e+12  -5.3380622005933008e+11  -8.4884586063083789e+11  -7.6658433033188171e+10  -2.4440017653091235e+12  -2.1294267836525979e+12  3.5681573847286299e+12  -7.4437473866528882e+11  -6.4148667270418103e+11  5.5642261586080798e+11  -2.1280572762192432e+11  2.1797226821164813e+11  -6.2906052927998328e+11  2.5569042114387144e+12  -1.8402384340642798e+12  -8.0801368853341394e+11  1.4669311369800930e+12  1.8419318976507729e+12  1.1341088602044087e+12  4.0598791382793587e+10  -3.1294315400631915e+11  5.5958144096433968e+10  3.9466584913022461e+10  7.2606105666748199e+09  -5.1151502729196215e+09  -9.1197999256355698e+10  1.6610166064306088e+11  -7.7364628851854462e+10  -1.9485951089432129e+10  5.8360180895571205e+10  1.8243191176032951e+10  1.8492889666602832e+11  -1.0336064789601443e+11  2.2549092696141109e+09  2.6158209098432156e+10  -8.6545028092660645e+10  -1.2372091681201214e+10  -7.3271587076611618e+10  -4.5318412606016216e+09  9.5165115085168274e+10  -1.4991144038021909e+11  6.8995993102574695e+11  2.7940143085118829e+11  -1.8912016791592613e+10  -1.2502806887064526e+11  2.1899621524840576e+10  -9.0532319207035385e+10  -4.3177092621149860e+11  -1.3540759292250554e+11  -1.5872018927357578e+11  -2.0530729007471585e+11  1.7657179019800119e+11  -1.4968611032398953e+11  1.6020297968475650e+11  8.2571521620107555e+09  1.4970139805485617e+11  -6.5230226543214014e+11  1.8605487945925522e+10  -1.8859764497529974e+11  -1.6156078387203293e+11  -2.2660195059112408e+11  2.9578033796445819e+11  -1.7024618230644043e+11  -3.1874030418013489e+11  -2.3974378071614880e+11  1.0917695271708225e+12  -3.1604721267783411e+11  4.9081369693607704e+10  -1.1813715717503651e+11  2.0332898464638776e+08  6.3176710275244545e+10  -8.0637167497584641e+10  -3.2528963763376923e+09  1.9440385401356836e+11  5.2682010056465073e+10  -3.6129366409453415e+10  -3.7990503204059006e+10  -7.8828054384314941e+10  -2.1441817482780371e+11  -1.0132427444833409e+11  -2.7968332678954002e+10  1.6877488197735513e+11  4.8227390157104608e+11  1.2859830167855620e+12  3.9192752906219824e+11  -1.4723377059703043e+11  -3.6789557756504980e+11  1.6554946661874611e+10  2.6447591440462624e+10  2.0161883992580292e+11  -6.0232482978158089e+10  -8.0839882589136963e+10  8.1221147814408386e+10  3.4052462330812935e+10  -4.7280722400636078e+11  -9.3919303888198462e+11  -1.0597361965957274e+11  -3.4515160904601807e+10  2.8734609385468178e+09  5.3543016552702698e+10  8.0607417961015579e+10  -2.8529232983681973e+10  1.2916409839872738e+10  -2.8792698883668396e+11  7.0472312286059967e+10  4.6115836187719849e+11  4.3434509122892178e+12  1.2197407622246543e+13  -6.6398057534631348e+10  1.3127109546077251e+12  3.0258630192304858e+12  -3.2727849951757227e+12  -8.2806360142512305e+11  -1.3750806696207410e+11  0.0000000000000000e+00  -3.5362873426417739e+12  -2.1145369035904462e+11  -6.0022803117935449e+11  1.6255882353048557e+11  2.3304609479535651e+11  -8.4092679777583105e+11  -1.3415212276456784e+11  6.1055000453356787e+11  -1.5687659835939218e+11  -8.6082935989200879e+11  -1.5269132540208611e+12  -1.1412087949222910e+12  5.9144072861471790e+11  -1.9053181742984879e+10  -1.2886626816687994e+11  -4.7013209102704422e+10  5.5336560261114380e+11  -3.9619813427545776e+11  -1.6198094351579739e+11  -8.4258592143324463e+10  5.0407777140876929e+11  2.5055664382509216e+11  -3.4985614379903137e+11  1.6953911819422417e+12  8.4752414185877234e+11  -6.9053461417201929e+11  -2.0919018040039868e+11  1.0935952925010228e+12  6.7920947013560864e+11  -9.8126906019870020e+11  -2.5715696561895468e+11  -5.6576592605827734e+11  -4.4106174096540375e+11  8.1131461764650635e+10  4.0163759096334943e+11  9.0850676496568207e+10  -2.9834831883664117e+11  -1.8786112280032904e+11  1.0388550031288547e+11  -1.1808470120181253e+11  -5.7938721342600471e+10  -8.4982480551975845e+10  3.4620110845636670e+11  -3.0555718142172778e+11  -1.0005669581765967e+12  -6.2877915932560864e+11  3.5466616022392505e+11  -2.8815236666763000e+11  5.2280969931083447e+11  -2.3306378633038422e+11  4.2227898567612343e+09  2.2780858716207736e+11  -1.6822256577315857e+11  2.6336038512949652e+11  -7.4593947127019666e+11  6.0995341316954199e+11  -1.4375690649241992e+11  9.4626515308867416e+09  7.3357488667422302e+10  -1.0426639084358742e+11  2.2408523044024544e+10  -2.0794544486932416e+11  -1.0278206922069327e+11  -3.3532601750912809e+09  1.0644373635584854e+11  -1.5055437316305024e+12  -5.3409217546158145e+12  1.6314364536004646e+12  3.3120463799098114e+11  1.9664837190392505e+12  8.6526659815070630e+11  9.0452512751862549e+11  1.3742994224850687e+11  -1.3368320194631282e+12  -1.0789952282562339e+12  4.5063653927810013e+10  4.6607856765411511e+11  5.7618485005925403e+11  1.4834956301352501e+10  1.6790933858331526e+10  5.7293030094125687e+10  2.3901695753815338e+10  2.4997967335473740e+10  -2.3352892644468378e+11  1.1271241181185051e+11  1.4014969539011683e+10  -6.2141821398888264e+09  2.9002561197765331e+10  1.2845317596322178e+10  -4.8646225136260605e+09  1.0567015967015186e+10  1.2376992295330157e+09  -5.2270830421563240e+10  5.7484275560548576e+10  -2.7832455274798029e+11  1.8566135992536295e+11  -8.1014295043840088e+11  -9.1834416988830164e+11  -8.8263132972487274e+10  -6.3226008295559253e+11  5.2689836962958667e+11  7.3265486424419177e+11  -1.6255754758339105e+11  1.6622965504605524e+11  -1.2968048626215610e+11  5.9172385984151050e+11  1.1093364204227104e+12  -2.2807534700074852e+10  2.3223436229277615e+11  5.9958406089967053e+11  -1.1149005827367754e+12  2.4612185885041522e+11  1.4659931009583589e+12  -8.9171936450182935e+11  3.6545280151780042e+11  5.2607763316192584e+11  -1.0857118080537827e+11  6.3843459337191124e+09  -1.8927515330863228e+10  1.3146168756695879e+11  7.5970115833818420e+11  8.1201484207823535e+11  2.5572219858546538e+12  2.4078924072680220e+12  -1.2058568417705737e+11  1.8579238000027066e+11  -3.4824639677697986e+11  -4.9712312100689569e+11  -2.4419913695623883e+11  -5.5498947803466141e+10  6.3880163536482147e+10  6.1013933759470016e+10  1.6002078534083264e+11  -2.5816718529589655e+11  -7.4374802112271216e+11  3.8784237058169754e+10  1.4775021974359979e+11  -3.3974965065023450e+11  -7.4949123202895105e+11  -1.2875428369787212e+12  4.8336557845440131e+11  5.3419419724531006e+10  -1.2958078585242922e+12  -9.8900333849332108e+10  1.0506361953737710e+12  -3.1391524499882466e+12  1.9637166646689194e+12  5.7034907640232788e+11  5.0610639493191284e+10  -7.8828470339809341e+10  -1.9004184645939703e+11  -2.9215014050983655e+11  -2.0705452601680337e+40  4.8014604400104676e+34  -3.3367367441152253e+35  8.9349150163470094e+35  -1.7392345172742980e+36  -6.6544952611776500e+35  3.0714652882222724e+33  2.7290048946555019e+31  -6.4780548653423737e+30  4.4892164048051896e+30  8.0399974376847462e+30  -1.0823204267219942e+39  5.6402427283586616e+29  4.0547018716033039e+29  4.9919072172456493e+41  -7.8350621408979440e+41  8.0785656105843138e+28  2.4911491046920408e+28  2.1975574614710801e+28  1.4234687957246143e+28  1.6196906699456664e+28  5.5953968761844805e+28  1.9872595535406214e+28  4.8854228058182568e+38  1.0557746776137702e+39  -7.0077394810141006e+40  1.4540949670557365e+28  -1.2491356577197782e+27  2.9369055163903174e+27  6.1317700652645413e+36  1.6108643265727020e+27  8.8617094091139190e+41  -2.1525061627281908e+42  -1.8932978711302923e+37  4.6240403938980537e+27  4.5030194899855592e+23  4.9854541198144136e+25  4.0570312499374942e+25  2.4219448703093387e+24  -3.1099553513581352e+34  1.9804024225150224e+35  5.7196054146302233e+33  4.2572436347175155e+33  -1.0166525990181829e+42  -1.0476787455928648e+26  -9.7100176119694141e+25  -1.0957798994154221e+25  7.7940646734829102e+25  -5.6865389206057170e+33  -1.6159724097814476e+32  5.1887322656420969e+30  -2.6553485034390016e+34  -2.6675063678771055e+33  3.1700080812909110e+35  -6.2858875336207101e+25  3.9338907130007761e+40  -5.3756474262413475e+25  -3.4666340489447894e+24  -1.0118219665465288e+39  1.5163519084761328e+25  4.9295466172603725e+24  5.6930709900079393e+30  -5.9400714708957394e+23  -4.4004617000467846e+24  8.5656670298599400e+40  -8.5806009277017354e+41  -1.2468948930363888e+39  -3.0248211465094863e+36  -1.0312424584160876e+39  -7.0290170430540138e+40  -2.2828415307933710e+39  5.6780741136585224e+33  2.6412603828956154e+32  9.3983157063101331e+32  3.1920815370845144e+32  -2.8796646011309097e+39  -3.9798036825049935e+24  7.8326142860490620e+37  -8.5113024941917306e+39  -7.1934452786212148e+31  1.0596400023994158e+24  1.7502448734895433e+38  -8.3014888957977646e+23  2.3374753402110574e+24  -2.0179189639145649e+24  -8.2290977002306360e+42  7.9873489451841012e+23  -3.1182476676522788e+23  3.7167179461798941e+24  -3.9680034901394047e+39  -4.3225809267633782e+29  1.4689245017430709e+24  -5.2285032795378661e+30  -3.8013175440451884e+23  -1.1833937145306381e+29  -1.3971213183023602e+42  -3.4882994419157191e+23  -2.9890354445410280e+23  -2.9159029817130625e+30  1.7839828613933267e+29  -4.4422330911565251e+31  -1.9778777652182918e+30  -3.7010665222592366e+24  5.5557483095915339e+36  -9.0003606345084918e+34  4.2695686267641249e+34  2.1778461216828429e+36  -5.0677032916292252e+29  1.0506169626747093e+29  5.7797195334588889e+22  -5.3924101598224127e+36  -8.0014355186202893e+22  -1.9875360292382475e+23  5.0461328062333818e+33  3.9523175799483838e+32  3.7799643755714642e+29  1.0533709567570872e+23  3.2713521883883468e+23  -7.2975084232153602e+22  -2.1069342301232587e+42  -9.9137128174699106e+36  5.4296837528290537e+27  1.2723571484226177e+41  4.0103042072067609e+24  -1.0001744840979930e+29  -9.2953621147553557e+30  -1.6685049433133431e+22  -3.4851917951186665e+22  -2.1353993631742705e+28  -1.2804076896727058e+28  2.2958826116042392e+31  4.8839532811337220e+28  7.8348600716370822e+32  5.6338807512300891e+36  1.8829116642532030e+33  -5.1980814353716998e+29  1.4206831037826561e+23  -4.8602568909066313e+41  -2.7271837934611219e+39  1.2497313633294194e+41  1.1106775228593196e+41  -8.2735025046527314e+41  -1.5539103120366711e+26  -1.2066192488265538e+37  1.9719596493543311e+33  1.7867101231431197e+27  2.5355936603079681e+27  1.2057242087392463e+41  -1.7056900338433164e+43  -2.4009695179405707e+31  3.9713719377606392e+21  3.0374744371259243e+33  -8.1636624277915755e+38  2.0726072128493157e+28  -9.1242815499639455e+27  2.5524390622046679e+25  -2.0248129712176673e+22  6.7285019676171437e+27  -1.4689291433906966e+22  1.0617197914868194e+22  1.2385873209460077e+21  1.2814458255600673e+27  5.0581346190307100e+30  -2.3818729477044176e+23  -4.2826999638941536e+26  9.5936660983320706e+34  1.4201298256668239e+28  1.9639547119530156e+24  -5.4608911963395530e+22  2.9745537521099767e+27  8.5936679531551737e+33  7.3064335054109253e+40  1.4862002811997122e+26  5.1469818683876257e+37  3.7478466797522806e+22  -4.5239760028731030e+36  -4.3011262521705385e+22  1.2644393097496263e+28  1.7379248633901100e+22  2.2205741229697940e+36  1.7211030027251315e+27  5.2221658606381225e+35  -3.1935839695519708e+32  -1.3845946367251829e+43  2.6177897979014535e+22  -1.3054787148077893e+33  -1.3215265200136415e+31  -1.8134242121075721e+36  -8.9927108494770427e+22  -9.2364412776303915e+25  -7.7749068032473603e+22  1.9388741390455977e+42  6.1309415765300688e+21  -6.2238875249968805e+22  -1.6002047988891753e+35  6.3330027783444876e+38  5.9374785802857912e+26  -3.9000342756658127e+27  -2.6914110487912278e+35  5.7573358855960920e+30  -1.8131275135957914e+32  -6.7035077547432452e+33  3.7713303277620831e+35  -1.5199765777011369e+31  -2.1131328218798687e+32  -1.3557485981247164e+27  1.8492428196883178e+27  -2.6974525730800890e+41  9.9069849462135513e+23  5.0307849338305702e+27  9.8506856393564286e+27  7.3563784466017500e+41  1.0270748417931559e+41  4.6095509543769971e+22  2.7693644117685974e+20  2.8002600698587489e+27  -6.5138445331395476e+36  4.8578389007387278e+22  -1.7257018841097833e+31  -1.7389247142389123e+31  -1.2435680551457366e+24  4.9682694710621934e+30  -1.0621659898998596e+38  -1.7222007082423624e+32  -2.2049336769098362e+31  -2.4299070166660626e+22  -1.8847666717216639e+29  8.9753854078488528e+21  -3.4975737122148116e+30  -1.3270794905559172e+22  -1.1620957502845169e+23  3.5245021379377693e+22  1.5443886098225645e+21  2.0452678763522354e+25  5.2273539057252030e+21  -6.1705549314533572e+35  -1.5636916613706450e+32  -2.4459773130860826e+26  -3.6141552829269583e+25  -4.4819074052123232e+41  1.0512821845918016e+40  5.9497504608854649e+31  3.2114792839212615e+32  -1.0963399858237976e+23  -5.5923684982923796e+34  -1.3721931909861483e+22  -5.3981432286991331e+21  -1.5899709243356202e+22  -1.0273189234178787e+38  -2.0517675699936965e+34  -8.4857152076112345e+33  1.3864027100590798e+34  1.1332399133181272e+42  -7.6992684548553812e+41  7.4612945240473880e+25  -2.6844740500981000e+38  -1.0955564215250498e+28  -3.0680022362932061e+33  7.4591121287483033e+22  9.2507025328643622e+21  9.0705386245468723e+22  -1.4070528242945541e+30  -7.3592631668545747e+25  7.2103659080093209e+33  -2.7728316706732796e+36  -1.2338122469630942e+38  4.2986821315227520e+25  -2.9360245536217468e+23  -9.0661745979375099e+22  -1.0044890110625977e+32  1.3892716332274376e+21  -1.2437774608235141e+38  -3.4520653963555571e+36  -1.1196458934984635e+29  -4.9719094457622849e+25  1.3610136939641794e+29  -5.8091096081929089e+39  1.1886349050481739e+40  1.7677928053840183e+38  5.1609793675406041e+37  -1.4058299322088646e+40  6.6069682156870743e+40  -7.5375584567772383e+42  6.4257074846358248e+31  -1.3077988260112727e+30  5.4100311231984266e+27  -3.7190526582712091e+41  -7.8005382544827290e+22  -8.1885955160642222e+25  1.6611396601614464e+38  -1.5203184485432305e+42  2.9133638097609639e+36  3.2026014357637803e+32  7.0114550999161469e+34  8.9100787422679399e+41  1.5531723939242194e+22  -3.1069107634323306e+34  -2.1384078236945278e+22  5.5072273740375785e+21  -1.6321682293867260e+22  3.4251556803113839e+40  -1.3511056669079122e+40  -3.2498757303316084e+40  2.0660886753840691e+41  -5.0139014707495568e+30  1.3480811841304799e+32  1.0868996259658731e+29  2.4158122808386757e+33  3.9163760369828935e+31  5.0417381557443574e+31  1.2789620175367377e+35  -3.5493002023145926e+31  6.9677980532066917e+38  1.5002589600285670e+28  -1.2087340122124464e+41  -4.9201071899680093e+40  -1.9601299306511942e+32  -8.7966609526264034e+28  5.5105464937595641e+29  -5.1326026388567260e+21  2.6992238002641488e+27  -1.2612447537090013e+27  -1.8269225071304746e+22  3.6727596843029920e+39  -1.2012386362660969e+20  3.1900689361954144e+19  -8.6092237510205768e+24  7.9780950583899681e+37  -6.7948407056559811e+38  -3.8126777511147622e+41  5.3081793679767519e+21  4.2721063997978230e+28  -1.4337525509742133e+31  -2.6797943704095844e+34  -3.7379892590328534e+38  4.7237677718860772e+27  -8.2717164339112534e+35  1.1824492681837642e+40  -2.2772281313600873e+42  -1.7799157761208757e+30  -5.4662997175463929e+25  1.6826073589549668e+36  7.1288593277339987e+24  4.2603550497346116e+24  -8.7934091428361829e+29  2.5675895178343995e+21  -1.7123703926376971e+26  6.3642859668649157e+26  -7.9064093276859243e+20  1.2470954486256094e+30  9.5001666408601959e+30  2.7586814327230854e+22  -7.8252523826956092e+23  4.8791685823669967e+20  2.3571531997348472e+26  6.6847348441750123e+24  1.9380494886561306e+33  -9.2675453156105390e+41  -4.1176730601226259e+24  -1.3762355754538488e+41  -5.1769765692941196e+40  5.5258675745581479e+27  -1.1250712088444469e+22  6.5150415307974640e+32  8.7283534633871131e+24  -1.2264680837704175e+40  -9.6784758486878511e+24  1.2319155269449272e+29  -8.4777573245735667e+39  2.3047093640121079e+26  1.2629422704874252e+21  -2.7345080916653480e+22  -2.7843977293727040e+26  -1.8215896254390698e+39  6.1987095597292714e+37  -2.3757035844527870e+29  3.7901290942840936e+22  -7.5399245570255492e+40  6.0586782757354000e+31  -1.2512921552785773e+22  5.9029129490924923e+34  -1.1937642790525430e+22  -5.5570443275867184e+25  -3.4563378295789083e+35  3.1709858400496601e+22  -2.2618927553719990e+42  3.7453676643182445e+20  5.4021879999767219e+25  2.0689677088981697e+21  8.5775661948477142e+37  -7.6071171855355355e+32  -1.3388395223814109e+30  -1.0456481150543182e+34  -7.1261138916718975e+20  -9.2414461688211548e+24  1.0254926040382673e+37  2.1548864684096731e+22  -4.5889967463784886e+32  1.3487196775219924e+28  3.0892708904663148e+21  6.4422513572671075e+20  4.9749167523107156e+34  4.6397615359666123e+23  -2.2234770679021542e+36  5.4387442541413641e+27  -9.5706611877854360e+34  5.6052536617108859e+33  2.9766248951997739e+19  -4.0144219862619404e+24  9.1564696313130081e+24  8.8736167755283998e+24  2.9901302791519000e+24  -1.7408538142787009e+37  1.1145908207939167e+39  -1.9740508756811340e+42  -1.1219535902530463e+38  -4.4370524111459289e+26  -7.4252027984945689e+40  -8.7834601713003037e+36  -2.0224266108016609e+25  1.8015872285656456e+20  4.4449205169393957e+22  -2.2183078798549230e+31  -6.4232124661534519e+30  -2.3610918837989863e+28  -1.3420082934994581e+39  -4.6016752781560257e+29  -2.8471914077494617e+21  -1.4336605304446045e+21  4.4273793165700006e+22  1.4281103955886389e+31  -4.7474781135091484e+22  4.1742313221748801e+27  2.7299902756947821e+24  1.2950288906045358e+25  1.7990317175327401e+25  4.3745754142968652e+31  1.2947373304240105e+26  -7.5085821921798899e+35  -1.4188574294235613e+32  2.2342485955579873e+34  -3.8695189396924416e+32  -2.7226606364039231e+34  1.3533938474500445e+38  -8.8455047154011676e+24  -3.3586548595493824e+36  1.1279813172378452e+28  6.0334940378652577e+42  7.5957674733887466e+30  -2.3575144419141720e+35  2.3913308195429955e+34  -4.3017384507865781e+39  9.8013068886612408e+24  -1.9034139434567577e+21  -3.4845815597155924e+21  -4.3714364859278903e+41  5.1468628265026819e+29  -1.5638952749212114e+35  7.9966948820936223e+34  1.1431547885533318e+24  -3.1981707986663092e+32  5.7644287684849245e+20  1.2138507340403678e+42  9.5166000675612290e+39  5.1952160557164051e+36  9.4381689084651135e+27  1.4239188455993171e+25  -6.7602560557011524e+24  1.4178298515191736e+29  -8.2881707459039573e+29  -1.5355097315974180e+33  1.4956957867659432e+24  4.0299113796575544e+36  -3.4083094518483870e+34  2.4378749304763944e+27  1.0311972115793155e+42  -5.6149385116069978e+28  -1.3776233787525205e+35  6.3509271825447671e+29  -1.6074756161656441e+32  -4.1135524898967187e+30  1.4250286428541639e+27  -8.0892903028240876e+20  -1.2138607288401919e+25  2.6893862875938957e+20  1.4367520644105739e+24  8.4470719151640161e+21  -4.8195522071729859e+39  -7.8799289517754394e+26  -4.4164803080485552e+31  -2.7808943272990353e+27  -5.1240921441470409e+37  -8.3986836884524631e+33  -4.3308036121340375e+39  2.2372386456241820e+22  1.4517641291301934e+37  2.9480900333572582e+21  6.0272272800723357e+20  