<?xml version="1.0"?>
<VTKFile type="UnstructuredGrid"  version="0.1"  >
<UnstructuredGrid>
<Piece  NumberOfPoints="20054" NumberOfCells="39478">
<Points>
<DataArray  type="Float64"  NumberOfComponents="3"  format="ascii">1 0 0  0.9997998037428526 0.02000880895389431 0  0.9991992951284931 0.04000960653046352 0  0.9981987145960756 0.05999438456007805 0  0.9967984627705549 0.07995514128721501 0  0.9949991003022806 0.09988388457430118 0  0.9928013476425149 0.1197726351017051 0  0.9902060847549715 0.139613429562597 0  0.987214350763483 0.1593983238513969 0  0.9838273435359444 0.1791193962445356 0  0.9800464192046954 0.198768750572253 0  0.9758730916235354 0.2183385193801655 0  0.9713090317615876 0.237820867079336 0  0.9663560670342555 0.2572079930835849 0  0.9610161805715396 0.2764921349327862 0  0.9552915104240066 0.2956655714008991 0  0.9491843487067304 0.3147206255874884 0  0.9426971406815462 0.3336496679914983 0  0.9358324837779861 0.3524451195660473 0  0.9285931265532873 0.3710994547530225 0  0.9209819675918909 0.3896052044962556 0  0.9130020543448703 0.4079549592320781 0  0.9046565819097542 0.4261413718560547 0  0.8959488917512338 0.4441571606647087 0  0.8868824703632656 0.4619951122710622 0  0.8774609478731046 0.4796480844928215 0  0.8676880965878291 0.4971090092120542 0  0.8575678294839372 0.5143708952052096 0  0.8471041986406199 0.5314268309423539 0  0.8363013936173391 0.5482699873544935 0  0.8251637397763597 0.5648936205678837 0  0.8136956965509062 0.5812910746042258 0  0.8019018556596399 0.5974557840456699 0  0.7897869392681683 0.6133812766635599 0  0.777355798098326 0.6290611760098652 0  0.7646134094859813 0.6444892039702628 0  0.7515648753881492 0.6596591832778468 0  0.7382154203402046 0.6745650399864606 0  0.7245703893640189 0.6892008059026586 0  0.7106352458278521 0.7035606209753273 0  0.6964155692588616 0.7176387356420051 0  0.6819170531091018 0.7314295131309636 0  0.6671455024759069 0.7449274317181303 0  0.6521068317775753 0.7581270869379442 0  0.6368070623852795 0.7710231937472638 0  0.6212523202121545 0.7836105886414595 0  0.6054488332605282 0.795884231721841 0  0.5894029291282759 0.8078392087135958 0  0.5731210324752972 0.8194707329334278 0  0.5566096624511305 0.8307741472061095 0  0.5398754300847343 0.8417449257291802 0  0.5229250356374803 0.8523786758850435 0  0.5057652659204196 0.8626711399997378 0  0.4884029915768944 0.8726181970476778 0  0.4708451643315825 0.8822158643016828 0  0.45309881420708 0.8914602989276292 0  0.4351710467091336 0.9003477995230937 0  0.4170690399816468 0.9088748075993677 0  0.398800041932607 0.9170379090062476 0  0.3803713673320772 0.9248338352990368 0  0.3617903948834157 0.9322594650472057 0  0.3430645642688987 0.9393118250841893 0  0.3242013731709288 0.9459880916978206 0  0.3052083742700172 0.952285591760924 0  0.2860931722207478 0.9582018038016155 0  0.2668634206069304 0.963734359012881 0  0.2475268188771628 0.9688810422010291 0  0.2280911092620296 0.9736397926726377 0  0.2085640736741707 0.9780087050596407 0  0.1889535305924618 0.9819860300822225 0  0.1692673319315541 0.9855701752492174 0  0.1495133598980264 0.9887597054957302 0  0.1296995238344084 0.9915533437577263 0  0.1098337570523395 0.9939499714833577 0  0.08992401365612977 0.9959486290808237 0  0.06997826535799723 0.9975485163025836 0  0.05000449828625179 0.9987489925657699 0  0.03001070978771124 0.9995495772086734 0  0.01000490522562346 0.9999499496831961 0  -0.01000490522562333 0.9999499496831961 0  -0.03001070978771133 0.9995495772086734 0  -0.05000449828625144 0.9987489925657699 0  -0.06997826535799688 0.9975485163025836 0  -0.08992401365612987 0.9959486290808237 0  -0.1098337570523394 0.9939499714833577 0  -0.1296995238344082 0.9915533437577263 0  -0.1495133598980262 0.9887597054957303 0  -0.1692673319315537 0.9855701752492174 0  -0.1889535305924614 0.9819860300822226 0  -0.2085640736741705 0.9780087050596407 0  -0.2280911092620295 0.9736397926726377 0  -0.2475268188771627 0.9688810422010291 0  -0.2668634206069302 0.9637343590128811 0  -0.2860931722207475 0.9582018038016156 0  -0.3052083742700173 0.9522855917609239 0  -0.3242013731709289 0.9459880916978205 0  -0.3430645642688986 0.9393118250841894 0  -0.3617903948834154 0.9322594650472058 0  -0.380371367332077 0.924833835299037 0  -0.3988000419326071 0.9170379090062476 0  -0.4170690399816465 0.9088748075993678 0  -0.4351710467091335 0.9003477995230939 0  -0.4530988142070799 0.8914602989276292 0  -0.4708451643315824 0.8822158643016829 0  -0.4884029915768945 0.8726181970476778 0  -0.5057652659204197 0.8626711399997378 0  -0.5229250356374801 0.8523786758850437 0  -0.5398754300847342 0.8417449257291804 0  -0.5566096624511303 0.8307741472061098 0  -0.5731210324752971 0.8194707329334279 0  -0.589402929128276 0.8078392087135957 0  -0.6054488332605281 0.7958842317218411 0  -0.6212523202121542 0.7836105886414597 0  -0.6368070623852793 0.7710231937472639 0  -0.652106831777575 0.7581270869379444 0  -0.6671455024759069 0.7449274317181304 0  -0.6819170531091018 0.7314295131309636 0  -0.6964155692588616 0.7176387356420052 0  -0.7106352458278521 0.7035606209753273 0  -0.7245703893640187 0.6892008059026588 0  -0.7382154203402043 0.6745650399864608 0  -0.751564875388149 0.6596591832778469 0  -0.7646134094859813 0.6444892039702628 0  -0.7773557980983258 0.6290611760098654 0  -0.7897869392681683 0.6133812766635599 0  -0.8019018556596398 0.59745578404567 0  -0.8136956965509062 0.5812910746042258 0  -0.8251637397763595 0.5648936205678839 0  -0.836301393617339 0.5482699873544935 0  -0.8471041986406197 0.5314268309423542 0  -0.8575678294839372 0.5143708952052097 0  -0.8676880965878292 0.497109009212054 0  -0.8774609478731045 0.4796480844928216 0  -0.8868824703632656 0.4619951122710621 0  -0.8959488917512338 0.4441571606647088 0  -0.904656581909754 0.426141371856055 0  -0.9130020543448703 0.4079549592320783 0  -0.920981967591891 0.3896052044962555 0  -0.9285931265532872 0.3710994547530226 0  -0.9358324837779861 0.3524451195660473 0  -0.9426971406815462 0.3336496679914984 0  -0.9491843487067303 0.3147206255874888 0  -0.9552915104240065 0.2956655714008993 0  -0.9610161805715396 0.2764921349327862 0  -0.9663560670342555 0.2572079930835851 0  -0.9713090317615876 0.2378208670793361 0  -0.9758730916235353 0.2183385193801658 0  -0.9800464192046954 0.198768750572253 0  -0.9838273435359444 0.1791193962445354 0  -0.987214350763483 0.159398323851397 0  -0.9902060847549714 0.1396134295625972 0  -0.9928013476425149 0.1197726351017052 0  -0.9949991003022804 0.09988388457430147 0  -0.9967984627705549 0.07995514128721509 0  -0.9981987145960756 0.05999438456007793 0  -0.9991992951284931 0.04000960653046362 0  -0.9997998037428526 0.02000880895389464 0  -1 1.224646799147353e-16 0  -0.9997998037428526 -0.0200088089538944 0  -0.9991992951284931 -0.04000960653046338 0  -0.9981987145960756 -0.05999438456007812 0  -0.9967984627705549 -0.07995514128721484 0  -0.9949991003022806 -0.09988388457430078 0  -0.9928013476425149 -0.1197726351017049 0  -0.9902060847549715 -0.1396134295625965 0  -0.9872143507634831 -0.1593983238513963 0  -0.9838273435359444 -0.1791193962445356 0  -0.9800464192046953 -0.1987687505722532 0  -0.9758730916235354 -0.2183385193801655 0  -0.9713090317615876 -0.2378208670793363 0  -0.9663560670342556 -0.2572079930835848 0  -0.9610161805715396 -0.276492134932786 0  -0.9552915104240066 -0.2956655714008991 0  -0.9491843487067305 -0.3147206255874881 0  -0.9426971406815464 -0.3336496679914978 0  -0.9358324837779862 -0.3524451195660471 0  -0.9285931265532875 -0.371099454753022 0  -0.9209819675918909 -0.3896052044962557 0  -0.9130020543448704 -0.407954959232078 0  -0.9046565819097541 -0.4261413718560548 0  -0.8959488917512338 -0.4441571606647086 0  -0.8868824703632655 -0.4619951122710623 0  -0.8774609478731046 -0.4796480844928214 0  -0.8676880965878293 -0.4971090092120538 0  -0.8575678294839373 -0.5143708952052095 0  -0.84710419864062 -0.5314268309423537 0  -0.8363013936173395 -0.5482699873544929 0  -0.8251637397763596 -0.5648936205678838 0  -0.8136956965509061 -0.5812910746042259 0  -0.8019018556596399 -0.5974557840456699 0  -0.7897869392681682 -0.61338127666356 0  -0.777355798098326 -0.6290611760098652 0  -0.7646134094859816 -0.6444892039702625 0  -0.7515648753881492 -0.6596591832778468 0  -0.7382154203402048 -0.6745650399864603 0  -0.7245703893640192 -0.6892008059026583 0  -0.7106352458278522 -0.7035606209753272 0  -0.6964155692588621 -0.7176387356420046 0  -0.6819170531091017 -0.7314295131309637 0  -0.667145502475907 -0.7449274317181303 0  -0.6521068317775756 -0.758127086937944 0  -0.6368070623852792 -0.7710231937472641 0  -0.6212523202121544 -0.7836105886414596 0  -0.6054488332605283 -0.795884231721841 0  -0.5894029291282762 -0.8078392087135956 0  -0.5731210324752977 -0.8194707329334274 0  -0.5566096624511304 -0.8307741472061095 0  -0.5398754300847344 -0.8417449257291802 0  -0.5229250356374798 -0.8523786758850437 0  -0.5057652659204195 -0.8626711399997379 0  -0.4884029915768943 -0.872618197047678 0  -0.4708451643315825 -0.8822158643016828 0  -0.4530988142070805 -0.8914602989276289 0  -0.4351710467091333 -0.900347799523094 0  -0.4170690399816467 -0.9088748075993677 0  -0.3988000419326073 -0.9170379090062475 0  -0.3803713673320777 -0.9248338352990366 0  -0.3617903948834162 -0.9322594650472055 0  -0.3430645642688988 -0.9393118250841893 0  -0.3242013731709283 -0.9459880916978207 0  -0.3052083742700169 -0.9522855917609241 0  -0.2860931722207477 -0.9582018038016155 0  -0.2668634206069305 -0.963734359012881 0  -0.2475268188771631 -0.968881042201029 0  -0.2280911092620301 -0.9736397926726376 0  -0.2085640736741706 -0.9780087050596407 0  -0.1889535305924619 -0.9819860300822225 0  -0.1692673319315544 -0.9855701752492173 0  -0.1495133598980269 -0.9887597054957302 0  -0.1296995238344092 -0.9915533437577262 0  -0.1098337570523396 -0.9939499714833577 0  -0.08992401365612945 -0.9959486290808237 0  -0.06997826535799691 -0.9975485163025836 0  -0.05000449828625168 -0.9987489925657699 0  -0.030010709787
[...]
<PointData  Scalars="Displacement"> 
<DataArray  type="Float64"  Name="Displacement"  format="ascii">0.0000000000000000e+00  0.0000000000000000e+00  0.0000000000000000e+00  0.0000000000000000e+00  0.0000000000000000e+00  0.0000000000000000e+00  0.0000000000000000e+00  0.0000000000000000e+00  0.0000000000000000e+00  0.0000000000000000e+00  0.0000000000000000e+00  0.0000000000000000e+00  0.0000000000000000e+00  0.0000000000000000e+00  0.0000000000000000e+00  0.0000000000000000e+00  0.0000000000000000e+00  0.0000000000000000e+00  0.0000000000000000e+00  0.0000000000000000e+00  0.0000000000000000e+00  0.0000000000000000e+00  0.0000000000000000e+00  0.0000000000000000e+00  0.0000000000000000e+00  0.0000000000000000e+00  0.0000000000000000e+00  0.0000000000000000e+00  0.0000000000000000e+00  0.0000000000000000e+00  0.0000000000000000e+00  0.0000000000000000e+00  0.0000000000000000e+00  0.0000000000000000e+00  0.0000000000000000e+00  0.0000000000000000e+00  0.0000000000000000e+00  0.0000000000000000e+00  0.0000000000000000e+00  0.0000000000000000e+00  0.0000000000000000e+00  0.0000000000000000e+00  0.0000000000000000e+00  0.0000000000000000e+00  0.0000000000000000e+00  0.0000000000000000e+00  0.0000000000000000e+00  0.0000000000000000e+00  0.0000000000000000e+00  0.0000000000000000e+00  0.0000000000000000e+00  0.0000000000000000e+00  0.0000000000000000e+00  0.0000000000000000e+00  0.0000000000000000e+00  0.0000000000000000e+00  0.0000000000000000e+00  0.0000000000000000e+00  0.0000000000000000e+00  0.0000000000000000e+00  0.0000000000000000e+00  0.0000000000000000e+00  0.0000000000000000e+00  0.0000000000000000e+00  0.0000000000000000e+00  0.0000000000000000e+00  0.0000000000000000e+00  0.0000000000000000e+00  0.0000000000000000e+00  0.0000000000000000e+00  0.0000000000000000e+00  0.0000000000000000e+00  0.0000000000000000e+00  0.0000000000000000e+00  0.0000000000000000e+00  0.0000000000000000e+00  0.0000000000000000e+00  0.0000000000000000e+00  0.0000000000000000e+00  0.0000000000000000e+00  0.0000000000000000e+00  0.0000000000000000e+00  0.0000000000000000e+00  0.0000000000000000e+00  0.0000000000000000e+00  0.0000000000000000e+00  0.0000000000000000e+00  0.0000000000000000e+00  0.0000000000000000e+00  0.0000000000000000e+00  0.0000000000000000e+00  0.0000000000000000e+00  0.0000000000000000e+00  0.0000000000000000e+00  0.0000000000000000e+00  0.0000000000000000e+00  0.0000000000000000e+00  0.0000000000000000e+00  0.0000000000000000e+00  0.0000000000000000e+00  0.0000000000000000e+00  0.0000000000000000e+00  0.0000000000000000e+00  0.0000000000000000e+00  0.0000000000000000e+00  0.0000000000000000e+00  0.0000000000000000e+00  0.0000000000000000e+00  0.0000000000000000e+00  0.0000000000000000e+00  0.0000000000000000e+00  0.0000000000000000e+00  0.0000000000000000e+00  0.0000000000000000e+00  0.0000000000000000e+00  0.0000000000000000e+00  0.0000000000000000e+00  0.0000000000000000e+00  0.0000000000000000e+00  0.0000000000000000e+00  0.0000000000000000e+00  0.0000000000000000e+00  0.0000000000000000e+00  0.0000000000000000e+00  0.0000000000000000e+00  0.0000000000000000e+00  0.0000000000000000e+00  0.0000000000000000e+00  0.0000000000000000e+00  0.0000000000000000e+00  0.0000000000000000e+00  0.0000000000000000e+00  0.0000000000000000e+00  0.0000000000000000e+00  0.0000000000000000e+00  0.0000000000000000e+00  0.0000000000000000e+00  0.0000000000000000e+00  0.0000000000000000e+00  0.0000000000000000e+00  0.0000000000000000e+00  0.0000000000000000e+00  0.0000000000000000e+00  0.0000000000000000e+00  0.0000000000000000e+00  0.0000000000000000e+00  0.0000000000000000e+00  0.0000000000000000e+00  0.0000000000000000e+00  0.0000000000000000e+00  0.0000000000000000e+00  0.0000000000000000e+00  0.0000000000000000e+00  0.0000000000000000e+00  0.0000000000000000e+00  0.0000000000000000e+00  0.0000000000000000e+00  0.0000000000000000e+00  0.0000000000000000e+00  0.0000000000000000e+00  0.0000000000000000e+00  0.0000000000000000e+00  0.0000000000000000e+00  0.0000000000000000e+00  0.0000000000000000e+00  0.0000000000000000e+00  0.0000000000000000e+00  0.0000000000000000e+00  0.0000000000000000e+00  0.0000000000000000e+00  0.0000000000000000e+00  0.0000000000000000e+00  0.0000000000000000e+00  0.0000000000000000e+00  0.0000000000000000e+00  0.0000000000000000e+00  0.0000000000000000e+00  0.0000000000000000e+00  0.0000000000000000e+00  0.0000000000000000e+00  0.0000000000000000e+00  0.0000000000000000e+00  0.0000000000000000e+00  0.0000000000000000e+00  0.0000000000000000e+00  0.0000000000000000e+00  0.0000000000000000e+00  0.0000000000000000e+00  0.0000000000000000e+00  0.0000000000000000e+00  0.0000000000000000e+00  0.0000000000000000e+00  0.0000000000000000e+00  0.0000000000000000e+00  0.0000000000000000e+00  0.0000000000000000e+00  0.0000000000000000e+00  0.0000000000000000e+00  0.0000000000000000e+00  0.0000000000000000e+00  0.0000000000000000e+00  0.0000000000000000e+00  0.0000000000000000e+00  0.0000000000000000e+00  0.0000000000000000e+00  0.0000000000000000e+00  0.0000000000000000e+00  0.0000000000000000e+00  0.0000000000000000e+00  0.0000000000000000e+00  0.0000000000000000e+00  0.0000000000000000e+00  0.0000000000000000e+00  0.0000000000000000e+00  0.0000000000000000e+00  0.0000000000000000e+00  0.0000000000000000e+00  0.0000000000000000e+00  0.0000000000000000e+00  0.0000000000000000e+00  0.0000000000000000e+00  0.0000000000000000e+00  0.0000000000000000e+00  0.0000000000000000e+00  0.0000000000000000e+00  0.0000000000000000e+00  0.0000000000000000e+00  0.0000000000000000e+00  0.0000000000000000e+00  0.0000000000000000e+00  0.0000000000000000e+00  0.0000000000000000e+00  0.0000000000000000e+00  0.0000000000000000e+00  0.0000000000000000e+00  0.0000000000000000e+00  0.0000000000000000e+00  0.0000000000000000e+00  0.0000000000000000e+00  0.0000000000000000e+00  0.0000000000000000e+00  0.0000000000000000e+00  0.0000000000000000e+00  0.0000000000000000e+00  0.0000000000000000e+00  0.0000000000000000e+00  0.0000000000000000e+00  0.0000000000000000e+00  0.0000000000000000e+00  0.0000000000000000e+00  0.0000000000000000e+00  0.0000000000000000e+00  0.0000000000000000e+00  0.0000000000000000e+00  0.0000000000000000e+00  0.0000000000000000e+00  0.0000000000000000e+00  0.0000000000000000e+00  0.0000000000000000e+00  0.0000000000000000e+00  0.0000000000000000e+00  0.0000000000000000e+00  0.0000000000000000e+00  0.0000000000000000e+00  0.0000000000000000e+00  0.0000000000000000e+00  0.0000000000000000e+00  0.0000000000000000e+00  0.0000000000000000e+00  0.0000000000000000e+00  0.0000000000000000e+00  0.0000000000000000e+00  0.0000000000000000e+00  0.0000000000000000e+00  0.0000000000000000e+00  0.0000000000000000e+00  0.0000000000000000e+00  0.0000000000000000e+00  0.0000000000000000e+00  0.0000000000000000e+00  0.0000000000000000e+00  0.0000000000000000e+00  0.0000000000000000e+00  0.0000000000000000e+00  0.0000000000000000e+00  0.0000000000000000e+00  0.0000000000000000e+00  0.0000000000000000e+00  0.0000000000000000e+00  0.0000000000000000e+00  0.0000000000000000e+00  0.0000000000000000e+00  0.0000000000000000e+00  0.0000000000000000e+00  0.0000000000000000e+00  0.0000000000000000e+00  0.0000000000000000e+00  0.0000000000000000e+00  0.0000000000000000e+00  0.0000000000000000e+00  0.0000000000000000e+00  0.0000000000000000e+00  0.0000000000000000e+00  0.0000000000000000e+00  0.0000000000000000e+00  0.0000000000000000e+00  0.0000000000000000e+00  0.0000000000000000e+00  0.0000000000000000e+00  0.0000000000000000e+00  0.0000000000000000e+00  0.0000000000000000e+00  0.0000000000000000e+00  0.0000000000000000e+00  -2.2679666274179722e-01  3.1704966987496162e-02  3.1686285415414142e-02  3.1662522545982903e-02  3.1740307635505116e-02  3.1719879376511433e-02  3.0989651443764771e-02  2.3805832045794319e-02  2.2193274253540507e-02  1.9169641805242502e-02  1.9161441767645681e-02  -6.1019739531069907e-02  1.5338083423507183e-02  1.5335079495377666e-02  -7.1890394294863463e-02  -8.0425540448342742e-02  1.2039310791638527e-02  1.2323675604711667e-02  1.1871581564653490e-02  1.1751598025348779e-02  1.1094595682942810e-02  1.1051851528884594e-02  1.1248429688831500e-02  5.7819891779458954e-03  5.7844184711921343e-03  -1.1624112489203926e-01  1.2793476671959158e-02  8.7661801879350097e-03  9.2939555053570232e-03  2.9065150484321605e-02  9.1657688658421874e-03  -9.1195471824748964e-02  -1.4832208508475456e-01  3.0876282322603386e-02  8.1724719852467320e-03  6.9793358183381123e-03  6.7948927048222391e-03  6.6862512599623787e-03  6.6600633775183420e-03  3.2058372426391188e-02  3.1704925676385047e-02  3.1194598112610862e-02  3.0984405466298666e-02  -1.6772794395913584e-01  6.3289483964416044e-03  6.1432268262847818e-03  5.9347231196785061e-03  5.9357154827434488e-03  2.8807027220123502e-02  2.9472023330441324e-02  1.7555218107090646e-02  3.2163987198157072e-02  3.0466689388180593e-02  2.7609025210790426e-02  5.2433667191586252e-03  -1.7581518015810832e-01  6.0612148027022247e-03  5.2474137155070202e-03  -4.1224464720729818e-02  5.0933402309811335e-03  5.1614344611188787e-03  1.9625631563856417e-02  5.0222675741279105e-03  5.2974439582567602e-03  -4.1099613862675403e-02  -1.1874131529705675e-01  1.7900111177799897e-03  2.7702347633261310e-02  -6.9212421817125614e-04  -1.9012354405650916e-01  -4.2519095056183981e-02  2.9087666435969189e-02  2.4540544325783249e-02  2.5872552511855402e-02  2.5961345037641869e-02  -1.9217902405976289e-02  4.9169227821470197e-03  1.3986711715211842e-02  -2.0616338315207369e-02  2.0609825057994823e-02  4.5958967398737702e-03  8.1468780925874253e-03  4.4631528857847170e-03  4.5284413602020047e-03  4.3158529170007629e-03  -1.9629947186989891e-01  4.4163200467659813e-03  4.2278713157553440e-03  4.2309470010232818e-03  -2.1651719674341220e-03  1.7918944665878334e-02  4.0880750493509140e-03  2.4800237735735399e-02  4.0457796014670578e-03  1.8002185598704656e-02  -1.7215048328290880e-01  4.4313025303508646e-03  3.9479422139367306e-03  1.7039054550567010e-02  1.4982821157839171e-02  2.1451205887985193e-02  1.7046791660592590e-02  3.9400029158687191e-03  2.4616744912669929e-02  3.2525890120716265e-02  3.2530966656014522e-02  2.0652666107688192e-02  1.4994745212290737e-02  1.6284097693244352e-02  3.5513558798823861e-03  1.8075490221846957e-02  3.5170119029526736e-03  3.6711885948544566e-03  2.8379444057234013e-02  2.7321819205559584e-02  1.4525321264487844e-02  3.3967471917519714e-03  3.8363211435750479e-03  3.7634669484050511e-03  -1.9046679953502052e-01  2.3432870177385847e-02  1.0004737802408932e-02  -7.7381829384109146e-02  5.1613405277657802e-03  1.2746824710816066e-02  1.9038553543785790e-02  3.7319490561572226e-03  3.2825449929984787e-03  1.2160232945472671e-02  1.2384054822150940e-02  1.9371243246548653e-02  1.2941927917466185e-02  2.4506188269069567e-02  2.8173455741217268e-02  2.8870855725367670e-02  1.5040734220902196e-02  3.5902806667239364e-03  -8.6340176802457300e-02  -3.8077086691556232e-03  -4.9527793225110507e-02  -2.0999353752606204e-01  -8.7087743799078951e-02  8.8739917824733547e-03  1.7871026989922968e-02  2.8245629591244027e-02  8.9676574874134347e-03  9.3990041396874030e-03  -6.5850630532689539e-02  -1.6614299095486562e-01  2.2627543638676400e-02  2.9329097051689619e-03  2.7813132561634736e-02  -2.0188417941469704e-03  1.0341939465466939e-02  1.0338268572669241e-02  5.2932041490570923e-03  2.8059676664785099e-03  9.4620957120677834e-03  3.0079547082072240e-03  2.8260247636070291e-03  2.8437159919195492e-03  9.1225714639889734e-03  2.0652672284155935e-02  3.0261017288046362e-03  7.3287461920539523e-03  3.2348171374753903e-02  1.0433319140153866e-02  3.8537262884497008e-03  2.7758098863735021e-03  8.9616198637919153e-03  2.9638116766271656e-02  -2.1280367265392916e-01  9.0923825138778322e-03  2.7786615411528014e-03  2.6776113802539077e-03  2.6684612710821551e-02  2.6293130388582698e-03  1.1339845013708948e-02  2.6839448136521588e-03  3.0338667023643486e-02  8.4754585544236979e-03  3.2667299734754164e-02  2.8886876913887926e-02  -1.2566821760887559e-01  2.9550841876105909e-03  3.2209718603508984e-02  2.2266703784870157e-02  3.0653997462489486e-02  2.7307219178904136e-03  6.4863438255415564e-03  2.7905457267928778e-03  -1.6696938746657494e-01  2.5445271424122408e-03  2.7215573045922181e-03  3.2686206687426896e-02  -3.2801123179501387e-02  1.0786506162747622e-02  8.1298273250860614e-03  3.2377985693964495e-02  2.0549767935699889e-02  2.7504297319074604e-02  2.9892389064836950e-02  3.1415452870792095e-02  2.1742993809930344e-02  2.7435003484587418e-02  8.0636805010188776e-03  7.9470587297899766e-03  -1.0591654290707873e-01  4.4410613372942711e-03  7.9227313998540688e-03  1.1778202007388074e-02  -1.5866587696335344e-01  -2.1443744070979537e-01  2.5489923350395603e-03  2.5035446897944420e-03  9.1967426048416498e-03  2.9498745199391632e-02  2.6781899335961120e-03  2.2517633698000143e-02  1.9656349318972519e-02  5.4737484802946405e-03  1.7428354772434426e-02  1.4267454204929780e-02  2.3966024480299622e-02  1.9889951509469792e-02  2.6947646605001790e-03  1.4977781103829061e-02  2.3322822850048381e-03  1.9740257251425437e-02  2.4729456674427554e-03  3.3222039939821858e-03  2.7219471879840972e-03  2.3327499878134429e-03  6.1187734997241155e-03  2.4329320915388291e-03  2.6474738453029997e-02  2.7863148197903309e-02  6.9595395207891981e-03  7.1355300844756263e-03  -9.5266646932350416e-02  -5.1647109315405726e-02  2.2032651776219072e-02  2.5235976007998501e-02  3.3609680797616818e-03  3.2035851919667381e-02  2.3369013850315463e-03  2.3311689644333129e-03  2.3138843710851305e-03  -5.6647230088529843e-03  2.9940667186423336e-02  3.1592621495561024e-02  3.1998668656800192e-02  -7.6918256028141493e-02  -2.1426487429387125e-01  6.5040960871577290e-03  7.1911162801982266e-03  9.5082410385164250e-03  3.2348151417900761e-02  3.0585568409128433e-03  2.2558938464201858e-03  3.0877568172703335e-03  1.5244030634787565e-02  7.1182878271987080e-03  2.9181653544332203e-02  2.9113944698644322e-02  1.0742783736856562e-02  6.1376441981940127e-03  3.5992578664144899e-03  3.0891687722639969e-03  2.9201021567323685e-02  2.1555675176095639e-03  -3.4026911032986212e-03  2.8085502574914427e-02  1.1033723126619845e-02  8.0153987778615807e-03  1.5550062685576033e-02  -2.4621494771723863e-02  -3.9117239260839619e-02  -1.0799690440475432e-04  -1.5255510331264790e-02  -4.8203025140612643e-02  -1.1931867797043808e-01  -1.3435206631713500e-01  2.0141781367881983e-02  1.5704258099765937e-02  1.1929143538804083e-02  -5.0008989522713383e-02  2.3565460301556130e-03  7.2549931111918460e-03  1.4263369456454456e-02  -1.3045625489909074e-01  2.7714956579303666e-02  2.1782877307218416e-02  3.0915770582721505e-02  -1.4935200829918988e-01  2.0875457947945081e-03  3.1993225105755356e-02  2.1684211001630790e-03  2.1973018690119883e-03  2.2807476862111015e-03  -1.7322047502312432e-01  -2.1684240563551416e-01  -3.8114091401995884e-02  -1.0483600928550675e-01  1.7332629571071432e-02  2.4194469832818997e-02  1.3103944362571817e-02  2.8282860434856321e-02  2.0007671004623782e-02  2.2169549828066723e-02  3.2210613856120694e-02  2.0516216382138859e-02  -4.9043526069594376e-02  1.0705603859430009e-02  -1.3456739748315036e-01  -1.1539740182466986e-01  2.9650034824036033e-02  1.3171255051623663e-02  1.6249427153755006e-02  2.1111119430298969e-03  8.4659159112961697e-03  9.1342008602296725e-03  2.0224873434213858e-03  -1.6242575981811721e-02  2.0303661571955465e-03  1.9916322949270890e-03  6.0448638428074559e-03  1.4979267607406078e-02  -3.6843044006674552e-03  -7.1632129727231666e-02  2.0177295946244762e-03  1.3263380867419981e-02  2.0523718024992414e-02  3.2584569698290912e-02  -2.2868819084300381e-02  1.1727102791264874e-02  3.2054432830171918e-02  -1.6795426818995915e-02  -1.1702550053458188e-01  1.7409630061528729e-02  7.7837436274081108e-03  3.1747236445577351e-02  5.6229938669064413e-03  5.2112824032600697e-03  1.7483469675718653e-02  2.0413277392554840e-03  7.6082784761414453e-03  9.0633603593352555e-03  1.9925748147352541e-03  1.7053779672581836e-02  1.7628790351932429e-02  1.9401473296497428e-03  5.5510241580338116e-03  1.8942777875921525e-03  6.6194715163996028e-03  5.5868000776399225e-03  3.1536485839333737e-02  -2.1934487757066093e-01  5.4027241691153678e-03  -1.7469523771523865e-01  -1.5236931867352474e-01  1.0640351021508815e-02  1.9698871332885660e-03  2.7324413320982305e-02  5.3395913873095866e-03  -3.4741207777539418e-02  5.3516998093557835e-03  1.4903350411007876e-02  -2.0547256142700765e-01  7.2855222037589108e-03  1.8720468248008902e-03  2.7682761692295224e-03  7.4163729318067169e-03  -3.9809062827515593e-03  2.4133697275671547e-02  1.4770608751687645e-02  2.6740308940975364e-03  -1.8540916564627410e-01  2.6768823461510299e-02  1.8760832755831489e-03  3.2644755864828297e-02  1.8452709255282161e-03  6.6444736070440857e-03  3.2023682257861889e-02  2.1521829606408402e-03  -1.2049595689985793e-01  1.7856596449721141e-03  7.4695360536746131e-03  1.8675062729458154e-03  1.6079052946165670e-02  2.9354605587727695e-02  1.7389348302049978e-02  2.9702860309476425e-02  1.8619789562148755e-03  6.6598603854509638e-03  1.5673551660903173e-02  2.7270274551019786e-03  2.5561450383243995e-02  1.1276801121114441e-02  1.8506096277287243e-03  1.8475298160636770e-03  3.2030144052366316e-02  4.7129253581420939e-03  2.7725063040856649e-02  1.1732351843359108e-02  3.2292760579994660e-02  2.8886648585651185e-02  1.7923855356184416e-03  6.2025367110481429e-03  7.2567838368202816e-03  4.9152332267700027e-03  4.9629008689100517e-03  2.4240081606934600e-02  -2.0700820664615012e-03  -1.3579638279160086e-01  1.1292221574263747e-03  6.9633537961717529e-03  -7.3135067050324923e-02  3.1166859666236502e-02  6.4237779281735357e-03  1.7083653717879313e-03  2.8165558949041812e-03  2.4478165740638037e-02  1.9589504741848507e-02  1.2090291033041245e-02  3.6384580038912638e-03  1.2938621863477160e-02  1.7162692525672216e-03  1.6949636819057084e-03  2.3414383996424627e-03  1.9761727901595392e-02  5.4987191374180735e-03  1.0832749634231175e-02  4.9835494670600385e-03  6.0221590961446747e-03  5.9495901495496455e-03  2.4499122035800947e-02  7.0909371533164388e-03  3.1819435647015906e-02  2.7398313980849916e-02  3.1126636480174708e-02  2.6875781470271261e-02  3.2682672899592244e-02  1.8133408985006368e-02  4.8303824308147123e-03  2.1186366174600239e-02  9.7317702816806188e-03  -2.0078671914453233e-01  2.2099170327626552e-02  3.2034337824703663e-02  3.2458482262516346e-02  1.1362206677327080e-02  4.6756277915361482e-03  1.7247973230794112e-03  1.7596793378314316e-03  -8.2848111053640372e-02  1.6933315084133278e-02  3.2604198438964227e-02  3.1684313389609683e-02  3.7533572771265805e-03  2.7549343930828772e-02  1.6932961065183698e-03  -1.2462481141334254e-01  -3.6741683776278476e-02  3.0669489513922260e-02  1.0570635061314643e-02  5.9490320500089596e-03  4.7706852608579717e-03  1.2524157172796143e-02  1.3287339735491118e-02  2.9422697342944327e-02  4.3677646454569272e-03  3.0305301243988631e-02  3.2655250327785372e-02  7.2083790348997307e-03  -1.2692772582727296e-01  1.3624386156046778e-02  3.2611893526914897e-02  1.5422898460969408e-02  2.3489743479996560e-02  2.0108017521072847e-02  1.0285813588690918e-02  1.5866449392541722e-03  5.6391879009513521e-03  1.6228419845519700e-03  4.3282960538204469e-03  2.9349831918161241e-03  -1.4155616968204337e-02  8.2696634090501809e-03  2.8389344809229222e-02  1.0130070700805053e-02  2.0557043306370825e-02  2.9740462617543786e-02  -3.0813443707432001e-02  2.8785488505173630e-03  2.1507517128015866e-02  2.5478027243438402e-03  1.5655127445335893e-03  1.8297808857978351e-03  3.2559296749679889e-02  4.2288136826582109e-03  1.6378627521814438e-03  3.2391195128474437e-02  3.1952000983815829e-02  2.2526612715230761e-02  9.8426383285933599e-03  4.3197387764510398e-03  9.9185863037646073e-03  1.2314242876364843e-02  2.1361812381803486e-02  2.7467442875008363e-02  2.1538068363823