<?xml version="1.0"?>
<VTKFile type="UnstructuredGrid"  version="0.1"  >
<UnstructuredGrid>
<Piece  NumberOfPoints="20054" NumberOfCells="39478">
<Points>
<DataArray  type="Float64"  NumberOfComponents="3"  format="ascii">1 0 0  0.9997998037428526 0.02000880895389431 0  0.9991992951284931 0.04000960653046352 0  0.9981987145960756 0.05999438456007805 0  0.9967984627705549 0.07995514128721501 0  0.9949991003022806 0.09988388457430118 0  0.9928013476425149 0.1197726351017051 0  0.9902060847549715 0.139613429562597 0  0.987214350763483 0.1593983238513969 0  0.9838273435359444 0.1791193962445356 0  0.9800464192046954 0.198768750572253 0  0.9758730916235354 0.2183385193801655 0  0.9713090317615876 0.237820867079336 0  0.9663560670342555 0.2572079930835849 0  0.9610161805715396 0.2764921349327862 0  0.9552915104240066 0.2956655714008991 0  0.9491843487067304 0.3147206255874884 0  0.9426971406815462 0.3336496679914983 0  0.9358324837779861 0.3524451195660473 0  0.9285931265532873 0.3710994547530225 0  0.9209819675918909 0.3896052044962556 0  0.9130020543448703 0.4079549592320781 0  0.9046565819097542 0.4261413718560547 0  0.8959488917512338 0.4441571606647087 0  0.8868824703632656 0.4619951122710622 0  0.8774609478731046 0.4796480844928215 0  0.8676880965878291 0.4971090092120542 0  0.8575678294839372 0.5143708952052096 0  0.8471041986406199 0.5314268309423539 0  0.8363013936173391 0.5482699873544935 0  0.8251637397763597 0.5648936205678837 0  0.8136956965509062 0.5812910746042258 0  0.8019018556596399 0.5974557840456699 0  0.7897869392681683 0.6133812766635599 0  0.777355798098326 0.6290611760098652 0  0.7646134094859813 0.6444892039702628 0  0.7515648753881492 0.6596591832778468 0  0.7382154203402046 0.6745650399864606 0  0.7245703893640189 0.6892008059026586 0  0.7106352458278521 0.7035606209753273 0  0.6964155692588616 0.7176387356420051 0  0.6819170531091018 0.7314295131309636 0  0.6671455024759069 0.7449274317181303 0  0.6521068317775753 0.7581270869379442 0  0.6368070623852795 0.7710231937472638 0  0.6212523202121545 0.7836105886414595 0  0.6054488332605282 0.795884231721841 0  0.5894029291282759 0.8078392087135958 0  0.5731210324752972 0.8194707329334278 0  0.5566096624511305 0.8307741472061095 0  0.5398754300847343 0.8417449257291802 0  0.5229250356374803 0.8523786758850435 0  0.5057652659204196 0.8626711399997378 0  0.4884029915768944 0.8726181970476778 0  0.4708451643315825 0.8822158643016828 0  0.45309881420708 0.8914602989276292 0  0.4351710467091336 0.9003477995230937 0  0.4170690399816468 0.9088748075993677 0  0.398800041932607 0.9170379090062476 0  0.3803713673320772 0.9248338352990368 0  0.3617903948834157 0.9322594650472057 0  0.3430645642688987 0.9393118250841893 0  0.3242013731709288 0.9459880916978206 0  0.3052083742700172 0.952285591760924 0  0.2860931722207478 0.9582018038016155 0  0.2668634206069304 0.963734359012881 0  0.2475268188771628 0.9688810422010291 0  0.2280911092620296 0.9736397926726377 0  0.2085640736741707 0.9780087050596407 0  0.1889535305924618 0.9819860300822225 0  0.1692673319315541 0.9855701752492174 0  0.1495133598980264 0.9887597054957302 0  0.1296995238344084 0.9915533437577263 0  0.1098337570523395 0.9939499714833577 0  0.08992401365612977 0.9959486290808237 0  0.06997826535799723 0.9975485163025836 0  0.05000449828625179 0.9987489925657699 0  0.03001070978771124 0.9995495772086734 0  0.01000490522562346 0.9999499496831961 0  -0.01000490522562333 0.9999499496831961 0  -0.03001070978771133 0.9995495772086734 0  -0.05000449828625144 0.9987489925657699 0  -0.06997826535799688 0.9975485163025836 0  -0.08992401365612987 0.9959486290808237 0  -0.1098337570523394 0.9939499714833577 0  -0.1296995238344082 0.9915533437577263 0  -0.1495133598980262 0.9887597054957303 0  -0.1692673319315537 0.9855701752492174 0  -0.1889535305924614 0.9819860300822226 0  -0.2085640736741705 0.9780087050596407 0  -0.2280911092620295 0.9736397926726377 0  -0.2475268188771627 0.9688810422010291 0  -0.2668634206069302 0.9637343590128811 0  -0.2860931722207475 0.9582018038016156 0  -0.3052083742700173 0.9522855917609239 0  -0.3242013731709289 0.9459880916978205 0  -0.3430645642688986 0.9393118250841894 0  -0.3617903948834154 0.9322594650472058 0  -0.380371367332077 0.924833835299037 0  -0.3988000419326071 0.9170379090062476 0  -0.4170690399816465 0.9088748075993678 0  -0.4351710467091335 0.9003477995230939 0  -0.4530988142070799 0.8914602989276292 0  -0.4708451643315824 0.8822158643016829 0  -0.4884029915768945 0.8726181970476778 0  -0.5057652659204197 0.8626711399997378 0  -0.5229250356374801 0.8523786758850437 0  -0.5398754300847342 0.8417449257291804 0  -0.5566096624511303 0.8307741472061098 0  -0.5731210324752971 0.8194707329334279 0  -0.589402929128276 0.8078392087135957 0  -0.6054488332605281 0.7958842317218411 0  -0.6212523202121542 0.7836105886414597 0  -0.6368070623852793 0.7710231937472639 0  -0.652106831777575 0.7581270869379444 0  -0.6671455024759069 0.7449274317181304 0  -0.6819170531091018 0.7314295131309636 0  -0.6964155692588616 0.7176387356420052 0  -0.7106352458278521 0.7035606209753273 0  -0.7245703893640187 0.6892008059026588 0  -0.7382154203402043 0.6745650399864608 0  -0.751564875388149 0.6596591832778469 0  -0.7646134094859813 0.6444892039702628 0  -0.7773557980983258 0.6290611760098654 0  -0.7897869392681683 0.6133812766635599 0  -0.8019018556596398 0.59745578404567 0  -0.8136956965509062 0.5812910746042258 0  -0.8251637397763595 0.5648936205678839 0  -0.836301393617339 0.5482699873544935 0  -0.8471041986406197 0.5314268309423542 0  -0.8575678294839372 0.5143708952052097 0  -0.8676880965878292 0.497109009212054 0  -0.8774609478731045 0.4796480844928216 0  -0.8868824703632656 0.4619951122710621 0  -0.8959488917512338 0.4441571606647088 0  -0.904656581909754 0.426141371856055 0  -0.9130020543448703 0.4079549592320783 0  -0.920981967591891 0.3896052044962555 0  -0.9285931265532872 0.3710994547530226 0  -0.9358324837779861 0.3524451195660473 0  -0.9426971406815462 0.3336496679914984 0  -0.9491843487067303 0.3147206255874888 0  -0.9552915104240065 0.2956655714008993 0  -0.9610161805715396 0.2764921349327862 0  -0.9663560670342555 0.2572079930835851 0  -0.9713090317615876 0.2378208670793361 0  -0.9758730916235353 0.2183385193801658 0  -0.9800464192046954 0.198768750572253 0  -0.9838273435359444 0.1791193962445354 0  -0.987214350763483 0.159398323851397 0  -0.9902060847549714 0.1396134295625972 0  -0.9928013476425149 0.1197726351017052 0  -0.9949991003022804 0.09988388457430147 0  -0.9967984627705549 0.07995514128721509 0  -0.9981987145960756 0.05999438456007793 0  -0.9991992951284931 0.04000960653046362 0  -0.9997998037428526 0.02000880895389464 0  -1 1.224646799147353e-16 0  -0.9997998037428526 -0.0200088089538944 0  -0.9991992951284931 -0.04000960653046338 0  -0.9981987145960756 -0.05999438456007812 0  -0.9967984627705549 -0.07995514128721484 0  -0.9949991003022806 -0.09988388457430078 0  -0.9928013476425149 -0.1197726351017049 0  -0.9902060847549715 -0.1396134295625965 0  -0.9872143507634831 -0.1593983238513963 0  -0.9838273435359444 -0.1791193962445356 0  -0.9800464192046953 -0.1987687505722532 0  -0.9758730916235354 -0.2183385193801655 0  -0.9713090317615876 -0.2378208670793363 0  -0.9663560670342556 -0.2572079930835848 0  -0.9610161805715396 -0.276492134932786 0  -0.9552915104240066 -0.2956655714008991 0  -0.9491843487067305 -0.3147206255874881 0  -0.9426971406815464 -0.3336496679914978 0  -0.9358324837779862 -0.3524451195660471 0  -0.9285931265532875 -0.371099454753022 0  -0.9209819675918909 -0.3896052044962557 0  -0.9130020543448704 -0.407954959232078 0  -0.9046565819097541 -0.4261413718560548 0  -0.8959488917512338 -0.4441571606647086 0  -0.8868824703632655 -0.4619951122710623 0  -0.8774609478731046 -0.4796480844928214 0  -0.8676880965878293 -0.4971090092120538 0  -0.8575678294839373 -0.5143708952052095 0  -0.84710419864062 -0.5314268309423537 0  -0.8363013936173395 -0.5482699873544929 0  -0.8251637397763596 -0.5648936205678838 0  -0.8136956965509061 -0.5812910746042259 0  -0.8019018556596399 -0.5974557840456699 0  -0.7897869392681682 -0.61338127666356 0  -0.777355798098326 -0.6290611760098652 0  -0.7646134094859816 -0.6444892039702625 0  -0.7515648753881492 -0.6596591832778468 0  -0.7382154203402048 -0.6745650399864603 0  -0.7245703893640192 -0.6892008059026583 0  -0.7106352458278522 -0.7035606209753272 0  -0.6964155692588621 -0.7176387356420046 0  -0.6819170531091017 -0.7314295131309637 0  -0.667145502475907 -0.7449274317181303 0  -0.6521068317775756 -0.758127086937944 0  -0.6368070623852792 -0.7710231937472641 0  -0.6212523202121544 -0.7836105886414596 0  -0.6054488332605283 -0.795884231721841 0  -0.5894029291282762 -0.8078392087135956 0  -0.5731210324752977 -0.8194707329334274 0  -0.5566096624511304 -0.8307741472061095 0  -0.5398754300847344 -0.8417449257291802 0  -0.5229250356374798 -0.8523786758850437 0  -0.5057652659204195 -0.8626711399997379 0  -0.4884029915768943 -0.872618197047678 0  -0.4708451643315825 -0.8822158643016828 0  -0.4530988142070805 -0.8914602989276289 0  -0.4351710467091333 -0.900347799523094 0  -0.4170690399816467 -0.9088748075993677 0  -0.3988000419326073 -0.9170379090062475 0  -0.3803713673320777 -0.9248338352990366 0  -0.3617903948834162 -0.9322594650472055 0  -0.3430645642688988 -0.9393118250841893 0  -0.3242013731709283 -0.9459880916978207 0  -0.3052083742700169 -0.9522855917609241 0  -0.2860931722207477 -0.9582018038016155 0  -0.2668634206069305 -0.963734359012881 0  -0.2475268188771631 -0.968881042201029 0  -0.2280911092620301 -0.9736397926726376 0  -0.2085640736741706 -0.9780087050596407 0  -0.1889535305924619 -0.9819860300822225 0  -0.1692673319315544 -0.9855701752492173 0  -0.1495133598980269 -0.9887597054957302 0  -0.1296995238344092 -0.9915533437577262 0  -0.1098337570523396 -0.9939499714833577 0  -0.08992401365612945 -0.9959486290808237 0  -0.06997826535799691 -0.9975485163025836 0  -0.05000449828625168 -0.9987489925657699 0  -0.030010709787
[...]
<PointData  Scalars="Displacement"> 
<DataArray  type="Float64"  Name="Displacement"  format="ascii">0.0000000000000000e+00  0.0000000000000000e+00  0.0000000000000000e+00  0.0000000000000000e+00  0.0000000000000000e+00  0.0000000000000000e+00  0.0000000000000000e+00  0.0000000000000000e+00  0.0000000000000000e+00  0.0000000000000000e+00  0.0000000000000000e+00  0.0000000000000000e+00  0.0000000000000000e+00  0.0000000000000000e+00  0.0000000000000000e+00  0.0000000000000000e+00  0.0000000000000000e+00  0.0000000000000000e+00  0.0000000000000000e+00  0.0000000000000000e+00  0.0000000000000000e+00  0.0000000000000000e+00  0.0000000000000000e+00  0.0000000000000000e+00  0.0000000000000000e+00  0.0000000000000000e+00  0.0000000000000000e+00  0.0000000000000000e+00  0.0000000000000000e+00  0.0000000000000000e+00  0.0000000000000000e+00  0.0000000000000000e+00  0.0000000000000000e+00  0.0000000000000000e+00  0.0000000000000000e+00  0.0000000000000000e+00  0.0000000000000000e+00  0.0000000000000000e+00  0.0000000000000000e+00  0.0000000000000000e+00  0.0000000000000000e+00  0.0000000000000000e+00  0.0000000000000000e+00  0.0000000000000000e+00  0.0000000000000000e+00  0.0000000000000000e+00  0.0000000000000000e+00  0.0000000000000000e+00  0.0000000000000000e+00  0.0000000000000000e+00  0.0000000000000000e+00  0.0000000000000000e+00  0.0000000000000000e+00  0.0000000000000000e+00  0.0000000000000000e+00  0.0000000000000000e+00  0.0000000000000000e+00  0.0000000000000000e+00  0.0000000000000000e+00  0.0000000000000000e+00  0.0000000000000000e+00  0.0000000000000000e+00  0.0000000000000000e+00  0.0000000000000000e+00  0.0000000000000000e+00  0.0000000000000000e+00  0.0000000000000000e+00  0.0000000000000000e+00  0.0000000000000000e+00  0.0000000000000000e+00  0.0000000000000000e+00  0.0000000000000000e+00  0.0000000000000000e+00  0.0000000000000000e+00  0.0000000000000000e+00  0.0000000000000000e+00  0.0000000000000000e+00  0.0000000000000000e+00  0.0000000000000000e+00  0.0000000000000000e+00  0.0000000000000000e+00  0.0000000000000000e+00  0.0000000000000000e+00  0.0000000000000000e+00  0.0000000000000000e+00  0.0000000000000000e+00  0.0000000000000000e+00  0.0000000000000000e+00  0.0000000000000000e+00  0.0000000000000000e+00  0.0000000000000000e+00  0.0000000000000000e+00  0.0000000000000000e+00  0.0000000000000000e+00  0.0000000000000000e+00  0.0000000000000000e+00  0.0000000000000000e+00  0.0000000000000000e+00  0.0000000000000000e+00  0.0000000000000000e+00  0.0000000000000000e+00  0.0000000000000000e+00  0.0000000000000000e+00  0.0000000000000000e+00  0.0000000000000000e+00  0.0000000000000000e+00  0.0000000000000000e+00  0.0000000000000000e+00  0.0000000000000000e+00  0.0000000000000000e+00  0.0000000000000000e+00  0.0000000000000000e+00  0.0000000000000000e+00  0.0000000000000000e+00  0.0000000000000000e+00  0.0000000000000000e+00  0.0000000000000000e+00  0.0000000000000000e+00  0.0000000000000000e+00  0.0000000000000000e+00  0.0000000000000000e+00  0.0000000000000000e+00  0.0000000000000000e+00  0.0000000000000000e+00  0.0000000000000000e+00  0.0000000000000000e+00  0.0000000000000000e+00  0.0000000000000000e+00  0.0000000000000000e+00  0.0000000000000000e+00  0.0000000000000000e+00  0.0000000000000000e+00  0.0000000000000000e+00  0.0000000000000000e+00  0.0000000000000000e+00  0.0000000000000000e+00  0.0000000000000000e+00  0.0000000000000000e+00  0.0000000000000000e+00  0.0000000000000000e+00  0.0000000000000000e+00  0.0000000000000000e+00  0.0000000000000000e+00  0.0000000000000000e+00  0.0000000000000000e+00  0.0000000000000000e+00  0.0000000000000000e+00  0.0000000000000000e+00  0.0000000000000000e+00  0.0000000000000000e+00  0.0000000000000000e+00  0.0000000000000000e+00  0.0000000000000000e+00  0.0000000000000000e+00  0.0000000000000000e+00  0.0000000000000000e+00  0.0000000000000000e+00  0.0000000000000000e+00  0.0000000000000000e+00  0.0000000000000000e+00  0.0000000000000000e+00  0.0000000000000000e+00  0.0000000000000000e+00  0.0000000000000000e+00  0.0000000000000000e+00  0.0000000000000000e+00  0.0000000000000000e+00  0.0000000000000000e+00  0.0000000000000000e+00  0.0000000000000000e+00  0.0000000000000000e+00  0.0000000000000000e+00  0.0000000000000000e+00  0.0000000000000000e+00  0.0000000000000000e+00  0.0000000000000000e+00  0.0000000000000000e+00  0.0000000000000000e+00  0.0000000000000000e+00  0.0000000000000000e+00  0.0000000000000000e+00  0.0000000000000000e+00  0.0000000000000000e+00  0.0000000000000000e+00  0.0000000000000000e+00  0.0000000000000000e+00  0.0000000000000000e+00  0.0000000000000000e+00  0.0000000000000000e+00  0.0000000000000000e+00  0.0000000000000000e+00  0.0000000000000000e+00  0.0000000000000000e+00  0.0000000000000000e+00  0.0000000000000000e+00  0.0000000000000000e+00  0.0000000000000000e+00  0.0000000000000000e+00  0.0000000000000000e+00  0.0000000000000000e+00  0.0000000000000000e+00  0.0000000000000000e+00  0.0000000000000000e+00  0.0000000000000000e+00  0.0000000000000000e+00  0.0000000000000000e+00  0.0000000000000000e+00  0.0000000000000000e+00  0.0000000000000000e+00  0.0000000000000000e+00  0.0000000000000000e+00  0.0000000000000000e+00  0.0000000000000000e+00  0.0000000000000000e+00  0.0000000000000000e+00  0.0000000000000000e+00  0.0000000000000000e+00  0.0000000000000000e+00  0.0000000000000000e+00  0.0000000000000000e+00  0.0000000000000000e+00  0.0000000000000000e+00  0.0000000000000000e+00  0.0000000000000000e+00  0.0000000000000000e+00  0.0000000000000000e+00  0.0000000000000000e+00  0.0000000000000000e+00  0.0000000000000000e+00  0.0000000000000000e+00  0.0000000000000000e+00  0.0000000000000000e+00  0.0000000000000000e+00  0.0000000000000000e+00  0.0000000000000000e+00  0.0000000000000000e+00  0.0000000000000000e+00  0.0000000000000000e+00  0.0000000000000000e+00  0.0000000000000000e+00  0.0000000000000000e+00  0.0000000000000000e+00  0.0000000000000000e+00  0.0000000000000000e+00  0.0000000000000000e+00  0.0000000000000000e+00  0.0000000000000000e+00  0.0000000000000000e+00  0.0000000000000000e+00  0.0000000000000000e+00  0.0000000000000000e+00  0.0000000000000000e+00  0.0000000000000000e+00  0.0000000000000000e+00  0.0000000000000000e+00  0.0000000000000000e+00  0.0000000000000000e+00  0.0000000000000000e+00  0.0000000000000000e+00  0.0000000000000000e+00  0.0000000000000000e+00  0.0000000000000000e+00  0.0000000000000000e+00  0.0000000000000000e+00  0.0000000000000000e+00  0.0000000000000000e+00  0.0000000000000000e+00  0.0000000000000000e+00  0.0000000000000000e+00  0.0000000000000000e+00  0.0000000000000000e+00  0.0000000000000000e+00  0.0000000000000000e+00  0.0000000000000000e+00  0.0000000000000000e+00  0.0000000000000000e+00  0.0000000000000000e+00  0.0000000000000000e+00  0.0000000000000000e+00  0.0000000000000000e+00  0.0000000000000000e+00  0.0000000000000000e+00  0.0000000000000000e+00  0.0000000000000000e+00  0.0000000000000000e+00  0.0000000000000000e+00  0.0000000000000000e+00  0.0000000000000000e+00  0.0000000000000000e+00  0.0000000000000000e+00  0.0000000000000000e+00  0.0000000000000000e+00  0.0000000000000000e+00  0.0000000000000000e+00  0.0000000000000000e+00  0.0000000000000000e+00  0.0000000000000000e+00  0.0000000000000000e+00  0.0000000000000000e+00  0.0000000000000000e+00  0.0000000000000000e+00  0.0000000000000000e+00  0.0000000000000000e+00  0.0000000000000000e+00  0.0000000000000000e+00  0.0000000000000000e+00  0.0000000000000000e+00  0.0000000000000000e+00  0.0000000000000000e+00  0.0000000000000000e+00  0.0000000000000000e+00  0.0000000000000000e+00  0.0000000000000000e+00  0.0000000000000000e+00  5.2179314508400486e-02  -5.4226943921093076e-02  -5.4213220411041048e-02  -5.4201277350977323e-02  -5.4234291424173596e-02  -5.4222819046123541e-02  -5.8012310583746791e-02  -5.4040583904550646e-02  -5.2503484370047711e-02  -4.8986672168610364e-02  -4.8993776025200400e-02  -4.9718173737532522e-03  -4.3318713567766974e-02  -4.3320082201198144e-02  -9.1900309183933643e-04  2.1801421679808830e-03  -3.6980808736351373e-02  -3.7618563030310373e-02  -3.6622354670025267e-02  -3.6351831950319831e-02  -3.4876979678101244e-02  -3.4776515206522425e-02  -3.5245847897826615e-02  -3.4779259997956780e-02  -3.4767091766633354e-02  1.4547849739109019e-02  -3.8567652412322254e-02  -2.9010303160398057e-02  -3.0417547516720381e-02  -5.1026561107569909e-02  -3.0083413866300257e-02  5.9832114784296401e-03  2.5074248656767877e-02  -5.3045876381884065e-02  -2.7339357473576676e-02  -2.3753587135465132e-02  -2.3156668248150956e-02  -2.2815783901544862e-02  -2.2742294160696661e-02  -5.7844624554965238e-02  -5.7988398323398228e-02  -5.8029409755319922e-02  -5.8037784508014362e-02  3.1368442929207867e-02  -2.1686883147162665e-02  -2.1079188635988167e-02  -2.0407663634389363e-02  -2.0409201372521953e-02  -5.7421805289551070e-02  -5.7697367142873941e-02  -4.6795907631344148e-02  -5.7788562899625272e-02  -5.7964536553798900e-02  -4.9623671789478310e-02  -1.8049932985623407e-02  3.4008020661460928e-02  -2.0801563272756625e-02  -1.8063151488944273e-02  -1.2759890457539547e-02  -1.7522812416618880e-02  -1.7779425918248864e-02  -4.9577666369066319e-02  -1.7289423354878281e-02  -1.8223440314699541e-02  -1.2804810982998890e-02  1.5383367945724275e-02  -3.2564725394880124e-02  -4.9674627189197545e-02  -3.1271211978044049e-02  3.8736230687261959e-02  -1.2239589570537338e-02  -5.7549386470530019e-02  -5.4666101517170197e-02  -5.5703337273759784e-02  -5.5770472851979280e-02  -2.2236914277922463e-02  -1.6921942964398962e-02  -3.9603494295158539e-02  -2.1601233399434431e-02  -5.0747891250162283e-02  -1.5788807942160577e-02  -3.6100037784138568e-02  -1.5303660446746430e-02  -1.5562860724379483e-02  -1.4798789087341365e-02  4.0823750809968966e-02  -1.5150011242988506e-02  -1.4480883262449821e-02  -1.4501407956583104e-02  -3.0491944041988964e-02  -4.7317866660605300e-02  -1.4009035715122069e-02  -5.4867014288535090e-02  -1.3840607520748916e-02  -4.7416763637222685e-02  3.2801738492224050e-02  -1.5197336010721539e-02  -1.3502386395266110e-02  -4.6033169288146207e-02  -4.2711989641078953e-02  -5.1700786867664522e-02  -4.6031502170043932e-02  -1.3453332658215481e-02  -4.7044753447922506e-02  -5.7420039067394305e-02  -5.7420777076480710e-02  -4.4029510769690576e-02  -4.2721811083336954e-02  -4.4870328700295399e-02  -1.2070433805500800e-02  -4.2275939348166980e-02  -1.1939273378409608e-02  -1.2508992712253541e-02  -5.7228316199126723e-02  -5.6638390917327704e-02  -4.1887559278266873e-02  -1.1531309901433154e-02  -1.3093389759604241e-02  -1.2821841460541007e-02  3.8853685139156775e-02  -4.6086503235027346e-02  -3.2257829029485235e-02  1.0750149042541143e-03  -1.7768129325811389e-02  -3.8477315351584364e-02  -4.8834851118007463e-02  -1.2737253232194616e-02  -1.1132194671700913e-02  -3.7260191078260507e-02  -3.7726640178923875e-02  -4.9258703939726117e-02  -3.8882671894800505e-02  -5.4646551881746844e-02  -5.0135936442700341e-02  -5.7441417222259018e-02  -4.2819781830264365e-02  -1.2232865497377820e-02  4.2880365710793750e-03  -2.9657353324765084e-02  -9.4289175570169918e-03  4.5616196153230502e-02  4.5482437947774327e-03  -2.9320653088377797e-02  -4.2128089748840719e-02  -5.7158612389380047e-02  -2.9561937848421344e-02  -3.0689993710020954e-02  -3.1593410509818025e-03  3.0856461487980099e-02  -5.2937827316231936e-02  -9.8650891934601703e-03  -5.6937049890970634e-02  -3.0555998014805692e-02  -3.3086359914328685e-02  -3.3085346348233728e-02  -1.8218040021251432e-02  -9.3956114975036944e-03  -3.0867186085278747e-02  -1.0135099590912577e-02  -9.4914869726326397e-03  -9.5452410971865187e-03  -2.9958370165415929e-02  -5.0804499093808249e-02  -1.0213248162743662e-02  -2.4844415183124014e-02  -5.5365080631939588e-02  -3.3295860343568136e-02  -1.3173134278043373e-02  -9.3249903349957673e-03  -2.9534225819167374e-02  -5.7757400027832542e-02  4.6645013268274367e-02  -2.9879038666276777e-02  -3.3091793991383227e-02  -8.9725779993371692e-03  -4.8764251156722456e-02  -8.7903067340822736e-03  -3.5436185623916719e-02  -8.9888609388032240e-03  -5.2399285723394272e-02  -2.8199515157208446e-02  -5.6830341962634728e-02  -5.7458315396507746e-02  1.7680610700788763e-02  -9.9561447289006812e-03  -5.7775893991810087e-02  -5.2587675396740155e-02  -5.2792435396062556e-02  -9.1449459309086208e-03  -2.2176023190346370e-02  -9.3640297049121871e-03  3.1121954384575930e-02  -8.5159234815293094e-03  -9.1266578703090347e-03  -5.6947464295307976e-02  -1.6266820928529702e-02  -3.4169285105385076e-02  -2.7190482103903808e-02  -5.5499254305244196e-02  -5.0692926847688981e-02  -5.6758076557449848e-02  -5.7814844006919171e-02  -5.3777107006447028e-02  -5.2017348158011685e-02  -5.6725409423050772e-02  -2.7017814895645559e-02  -2.6673142464050500e-02  1.1065947953948014e-02  -1.5242410439293187e-02  -2.6615802102694684e-02  -3.6420396716073535e-02  2.8431402930798075e-02  4.7258152344702369e-02  -8.5194896607631177e-03  -8.3533337321865537e-03  -3.0182236634778415e-02  -5.1454867344347767e-02  -8.9518975095811779e-03  -5.2800393504058830e-02  -4.9607474180050355e-02  -1.8840612508393667e-02  -4.6623495827636488e-02  -3.9783405832269435e-02  -5.4169022567059869e-02  -4.9900608435263137e-02  -9.0271193920119907e-03  -4.2699800581672200e-02  -7.7625581139882643e-03  -4.9717532594313336e-02  -8.2571298745020526e-03  -1.1249846874147169e-02  -9.1370562203979527e-03  -7.7553510412886459e-03  -2.0978326491397484e-02  -8.0959184251081749e-03  -4.8582905186504613e-02  -5.6962970862280700e-02  -2.3688224411769349e-02  -2.4232897679669567e-02  7.4100968819414258e-03  -8.5808421177818381e-03  -5.2324397879621509e-02  -5.5229014945688944e-02  -1.1396440678702191e-02  -5.4766999328368551e-02  -7.7610429526908248e-03  -7.7592714136293754e-03  -7.6965814878788260e-03  -2.8717302992097501e-02  -5.1931547041218960e-02  -5.7990504438079939e-02  -5.7895200333011244e-02  9.0569818317808080e-04  4.7186597249736936e-02  -2.2250880756363708e-02  -3.5585977604850882e-02  -3.0980534340230140e-02  -5.7618869520195716e-02  -1.0317712695694418e-02  -7.4956705906258194e-03  -1.0440929068885206e-02  -4.3142888547486075e-02  -2.4199098661144676e-02  -5.7573593991175759e-02  -5.1062070274801412e-02  -3.7641945831495736e-02  -2.1055231153521856e-02  -1.2241493947417165e-02  -1.0433794984934555e-02  -5.7584701754458678e-02  -7.1416630605133065e-03  -2.9860411434882873e-02  -5.0054248634793200e-02  -3.4744646794194242e-02  -2.6883623533733102e-02  -4.3687085214669366e-02  -1.9804141897092301e-02  -1.3624205344870183e-02  -3.1554502680253289e-02  -2.4059497893526044e-02  -9.9525357260168458e-03  1.5567681295428633e-02  2.0531656020528529e-02  -5.0200266647505674e-02  -4.3921997337878473e-02  -3.6764411805700288e-02  -9.2391890796699738e-03  -7.8310936287156567e-03  -2.4602675681537071e-02  -3.9770912169066315e-02  1.9255083601676225e-02  -4.9685971078984613e-02  -5.2050988278373012e-02  -5.7998693578336424e-02  2.5411117899861554e-02  -6.9151117135064959e-03  -5.7862785235218893e-02  -7.1748439004930683e-03  -7.2863543286509555e-03  -7.5570044504081621e-03  3.3162373080083823e-02  4.8167319166157213e-02  -1.4041402279080626e-02  1.0694548513873357e-02  -4.6452209586813752e-02  -5.4374784207726137e-02  -3.9211374035683887e-02  -5.7180817413099279e-02  -5.0036928866860529e-02  -5.2466564025914389e-02  -5.7750806994572794e-02  -5.0654845049530217e-02  -9.6098931647181206e-03  -3.3975638860063814e-02  2.0603776542001389e-02  1.4267001876235887e-02  -5.7746796108524109e-02  -3.9326586372169410e-02  -4.4800480794571926e-02  -6.9644276032512428e-03  -2.8157513069568464e-02  -3.0009000347965952e-02  -6.6830707153685345e-03  -2.3610322652057158e-02  -6.7010677799633793e-03  -6.5668922493942973e-03  -2.0748642633899885e-02  -4.0221258273151018e-02  -2.9704743154290135e-02  -1.0143854098161324e-03  -6.6623194613237664e-03  -3.9521252816626565e-02  -5.0665318774046668e-02  -5.6122343663845109e-02  -2.0593314804905390e-02  -3.6297215479470644e-02  -5.4788803000655688e-02  -2.3351334021132104e-02  1.4801107777613487e-02  -4.6589355681080614e-02  -2.6196473515356592e-02  -5.4269801254239393e-02  -1.9324615331512161e-02  -1.7910678234650940e-02  -4.6697971912217640e-02  -6.7493482111068070e-03  -2.5661170199510943e-02  -2.9824446251643811e-02  -6.5793871168176388e-03  -4.6048488125986227e-02  -4.6905524669910104e-02  -6.4083380233300978e-03  -1.9090577996232427e-02  -6.2369995700362214e-03  -2.2626876600880703e-02  -1.9213666858511190e-02  -5.8011012781961704e-02  4.9133725488949231e-02  -1.8579413110517393e-02  3.3643713833740638e-02  2.6392045503116635e-02  -3.3814650256909447e-02  -6.5081306185373593e-03  -5.6653710474019028e-02  -1.8372442404806670e-02  -1.5453167216887368e-02  -1.8410622449314323e-02  -4.2556539195152829e-02  4.3999569835268967e-02  -2.4701204319020321e-02  -6.1616240447470638e-03  -9.2996794497454786e-03  -2.5090045035903522e-02  -2.9556311831948942e-02  -4.6629756626003986e-02  -4.2338046582341381e-02  -8.9608572574046575e-03  3.7157780410210083e-02  -5.6325471309063360e-02  -6.1868545640617299e-03  -5.7076212352929465e-02  -6.0660069438565455e-03  -2.2700540791272001e-02  -5.4765638621277930e-02  -7.1138944916949868e-03  1.5959694613986348e-02  -5.8795626572933348e-03  -2.5255926169635391e-02  -6.1480442244295714e-03  -4.0919362028794627e-02  -5.7651786507508136e-02  -4.6557239011028539e-02  -5.7757342435558086e-02  -6.1185011267622016e-03  -2.2747844692362549e-02  -4.0684365941180460e-02  -9.1356504203454307e-03  -5.5476962033418599e-02  -3.5308656306945962e-02  -6.0869246246582093e-03  -6.0778221279997125e-03  -5.7873753855429449e-02  -1.6225815060237285e-02  -4.9699833746938191e-02  -3.6328400887968335e-02  -5.7713412356438745e-02  -5.7470728836293498e-02  -5.8862208680442452e-03  -2.1263333536040575e-02  -2.4610779738715376e-02  -1.6899533581158810e-02  -1.7083887958437852e-02  -4.6772829583635288e-02  -3.0531014305686468e-02  2.0994491391705533e-02  -3.2223667084849299e-02  -2.3708194037489274e-02  -4.7615267719429514e-04  -5.3452015642603573e-02  -2.1985213326353170e-02  -5.6143468143044321e-03  -9.4524687650091501e-03  -5.4610752133228323e-02  -4.9522449306245331e-02  -3.7110928186857912e-02  -3.3579234241638160e-02  -3.8865042589346636e-02  -5.6398541866634197e-03  -5.5612301819571207e-03  -7.7837896303097438e-03  -4.9743926204623146e-02  -1.8935427863019546e-02  -3.4284421691191801e-02  -1.7144499782905949e-02  -2.0663432390271675e-02  -2.0425858031289910e-02  -5.4642379327324457e-02  -2.4082275380193648e-02  -5.4381331367533231e-02  -5.6687372794548406e-02  -5.8038641058677280e-02  -5.6389531527566934e-02  -5.6744307462272166e-02  -4.2268976803463032e-02  -1.6622609949679644e-02  -4.4406663345452312e-02  -3.1580326332637083e-02  4.2359255079238128e-02  -5.2403544679863689e-02  -5.4736983608769260e-02  -5.7536122002314671e-02  -3.7995626981857752e-02  -1.6060340399174151e-02  -5.6557056129332142e-03  -5.7668399066508700e-03  3.0452223631054556e-03  -4.5871762266791030e-02  -5.6220896719538421e-02  -5.4191906542283036e-02  -1.2788787161177411e-02  -5.6791117112698082e-02  -5.5497778548412079e-03  1.7331519701392323e-02  -1.4616792162415409e-02  -5.2819481988188907e-02  -3.3662436174451693e-02  -2.0448018907371936e-02  -1.6426208217226193e-02  -3.8018760898383797e-02  -3.9571207648382317e-02  -5.7661497775902071e-02  -1.4983412974997319e-02  -5.2376123339290530e-02  -5.6340768499832737e-02  -2.4448795566521738e-02  1.8087654842158803e-02  -4.0211656640792175e-02  -5.6108727769440266e-02  -4.3456088214124521e-02  -5.3747614493758519e-02  -5.0168637716256681e-02  -3.2961398848179321e-02  -5.1912456564114006e-03  -1.9382294784089579e-02  -5.3176075061346761e-03  -1.4859990872449420e-02  -9.8853637801619484e-03  -2.4592570655532768e-02  -2.7611664277610252e-02  -5.7231439256994296e-02  -3.2571582631673250e-02  -4.3972122677514408e-02  -5.7779223542712907e-02  -1.7119621024690345e-02  -9.6813166556340615e-03  -4.4652745892348404e-02  -8.5043418