<?xml version="1.0"?>
<VTKFile type="UnstructuredGrid"  version="0.1"  >
<UnstructuredGrid>
<Piece  NumberOfPoints="20054" NumberOfCells="39478">
<Points>
<DataArray  type="Float64"  NumberOfComponents="3"  format="ascii">1 0 0  0.9997998037428526 0.02000880895389431 0  0.9991992951284931 0.04000960653046352 0  0.9981987145960756 0.05999438456007805 0  0.9967984627705549 0.07995514128721501 0  0.9949991003022806 0.09988388457430118 0  0.9928013476425149 0.1197726351017051 0  0.9902060847549715 0.139613429562597 0  0.987214350763483 0.1593983238513969 0  0.9838273435359444 0.1791193962445356 0  0.9800464192046954 0.198768750572253 0  0.9758730916235354 0.2183385193801655 0  0.9713090317615876 0.237820867079336 0  0.9663560670342555 0.2572079930835849 0  0.9610161805715396 0.2764921349327862 0  0.9552915104240066 0.2956655714008991 0  0.9491843487067304 0.3147206255874884 0  0.9426971406815462 0.3336496679914983 0  0.9358324837779861 0.3524451195660473 0  0.9285931265532873 0.3710994547530225 0  0.9209819675918909 0.3896052044962556 0  0.9130020543448703 0.4079549592320781 0  0.9046565819097542 0.4261413718560547 0  0.8959488917512338 0.4441571606647087 0  0.8868824703632656 0.4619951122710622 0  0.8774609478731046 0.4796480844928215 0  0.8676880965878291 0.4971090092120542 0  0.8575678294839372 0.5143708952052096 0  0.8471041986406199 0.5314268309423539 0  0.8363013936173391 0.5482699873544935 0  0.8251637397763597 0.5648936205678837 0  0.8136956965509062 0.5812910746042258 0  0.8019018556596399 0.5974557840456699 0  0.7897869392681683 0.6133812766635599 0  0.777355798098326 0.6290611760098652 0  0.7646134094859813 0.6444892039702628 0  0.7515648753881492 0.6596591832778468 0  0.7382154203402046 0.6745650399864606 0  0.7245703893640189 0.6892008059026586 0  0.7106352458278521 0.7035606209753273 0  0.6964155692588616 0.7176387356420051 0  0.6819170531091018 0.7314295131309636 0  0.6671455024759069 0.7449274317181303 0  0.6521068317775753 0.7581270869379442 0  0.6368070623852795 0.7710231937472638 0  0.6212523202121545 0.7836105886414595 0  0.6054488332605282 0.795884231721841 0  0.5894029291282759 0.8078392087135958 0  0.5731210324752972 0.8194707329334278 0  0.5566096624511305 0.8307741472061095 0  0.5398754300847343 0.8417449257291802 0  0.5229250356374803 0.8523786758850435 0  0.5057652659204196 0.8626711399997378 0  0.4884029915768944 0.8726181970476778 0  0.4708451643315825 0.8822158643016828 0  0.45309881420708 0.8914602989276292 0  0.4351710467091336 0.9003477995230937 0  0.4170690399816468 0.9088748075993677 0  0.398800041932607 0.9170379090062476 0  0.3803713673320772 0.9248338352990368 0  0.3617903948834157 0.9322594650472057 0  0.3430645642688987 0.9393118250841893 0  0.3242013731709288 0.9459880916978206 0  0.3052083742700172 0.952285591760924 0  0.2860931722207478 0.9582018038016155 0  0.2668634206069304 0.963734359012881 0  0.2475268188771628 0.9688810422010291 0  0.2280911092620296 0.9736397926726377 0  0.2085640736741707 0.9780087050596407 0  0.1889535305924618 0.9819860300822225 0  0.1692673319315541 0.9855701752492174 0  0.1495133598980264 0.9887597054957302 0  0.1296995238344084 0.9915533437577263 0  0.1098337570523395 0.9939499714833577 0  0.08992401365612977 0.9959486290808237 0  0.06997826535799723 0.9975485163025836 0  0.05000449828625179 0.9987489925657699 0  0.03001070978771124 0.9995495772086734 0  0.01000490522562346 0.9999499496831961 0  -0.01000490522562333 0.9999499496831961 0  -0.03001070978771133 0.9995495772086734 0  -0.05000449828625144 0.9987489925657699 0  -0.06997826535799688 0.9975485163025836 0  -0.08992401365612987 0.9959486290808237 0  -0.1098337570523394 0.9939499714833577 0  -0.1296995238344082 0.9915533437577263 0  -0.1495133598980262 0.9887597054957303 0  -0.1692673319315537 0.9855701752492174 0  -0.1889535305924614 0.9819860300822226 0  -0.2085640736741705 0.9780087050596407 0  -0.2280911092620295 0.9736397926726377 0  -0.2475268188771627 0.9688810422010291 0  -0.2668634206069302 0.9637343590128811 0  -0.2860931722207475 0.9582018038016156 0  -0.3052083742700173 0.9522855917609239 0  -0.3242013731709289 0.9459880916978205 0  -0.3430645642688986 0.9393118250841894 0  -0.3617903948834154 0.9322594650472058 0  -0.380371367332077 0.924833835299037 0  -0.3988000419326071 0.9170379090062476 0  -0.4170690399816465 0.9088748075993678 0  -0.4351710467091335 0.9003477995230939 0  -0.4530988142070799 0.8914602989276292 0  -0.4708451643315824 0.8822158643016829 0  -0.4884029915768945 0.8726181970476778 0  -0.5057652659204197 0.8626711399997378 0  -0.5229250356374801 0.8523786758850437 0  -0.5398754300847342 0.8417449257291804 0  -0.5566096624511303 0.8307741472061098 0  -0.5731210324752971 0.8194707329334279 0  -0.589402929128276 0.8078392087135957 0  -0.6054488332605281 0.7958842317218411 0  -0.6212523202121542 0.7836105886414597 0  -0.6368070623852793 0.7710231937472639 0  -0.652106831777575 0.7581270869379444 0  -0.6671455024759069 0.7449274317181304 0  -0.6819170531091018 0.7314295131309636 0  -0.6964155692588616 0.7176387356420052 0  -0.7106352458278521 0.7035606209753273 0  -0.7245703893640187 0.6892008059026588 0  -0.7382154203402043 0.6745650399864608 0  -0.751564875388149 0.6596591832778469 0  -0.7646134094859813 0.6444892039702628 0  -0.7773557980983258 0.6290611760098654 0  -0.7897869392681683 0.6133812766635599 0  -0.8019018556596398 0.59745578404567 0  -0.8136956965509062 0.5812910746042258 0  -0.8251637397763595 0.5648936205678839 0  -0.836301393617339 0.5482699873544935 0  -0.8471041986406197 0.5314268309423542 0  -0.8575678294839372 0.5143708952052097 0  -0.8676880965878292 0.497109009212054 0  -0.8774609478731045 0.4796480844928216 0  -0.8868824703632656 0.4619951122710621 0  -0.8959488917512338 0.4441571606647088 0  -0.904656581909754 0.426141371856055 0  -0.9130020543448703 0.4079549592320783 0  -0.920981967591891 0.3896052044962555 0  -0.9285931265532872 0.3710994547530226 0  -0.9358324837779861 0.3524451195660473 0  -0.9426971406815462 0.3336496679914984 0  -0.9491843487067303 0.3147206255874888 0  -0.9552915104240065 0.2956655714008993 0  -0.9610161805715396 0.2764921349327862 0  -0.9663560670342555 0.2572079930835851 0  -0.9713090317615876 0.2378208670793361 0  -0.9758730916235353 0.2183385193801658 0  -0.9800464192046954 0.198768750572253 0  -0.9838273435359444 0.1791193962445354 0  -0.987214350763483 0.159398323851397 0  -0.9902060847549714 0.1396134295625972 0  -0.9928013476425149 0.1197726351017052 0  -0.9949991003022804 0.09988388457430147 0  -0.9967984627705549 0.07995514128721509 0  -0.9981987145960756 0.05999438456007793 0  -0.9991992951284931 0.04000960653046362 0  -0.9997998037428526 0.02000880895389464 0  -1 1.224646799147353e-16 0  -0.9997998037428526 -0.0200088089538944 0  -0.9991992951284931 -0.04000960653046338 0  -0.9981987145960756 -0.05999438456007812 0  -0.9967984627705549 -0.07995514128721484 0  -0.9949991003022806 -0.09988388457430078 0  -0.9928013476425149 -0.1197726351017049 0  -0.9902060847549715 -0.1396134295625965 0  -0.9872143507634831 -0.1593983238513963 0  -0.9838273435359444 -0.1791193962445356 0  -0.9800464192046953 -0.1987687505722532 0  -0.9758730916235354 -0.2183385193801655 0  -0.9713090317615876 -0.2378208670793363 0  -0.9663560670342556 -0.2572079930835848 0  -0.9610161805715396 -0.276492134932786 0  -0.9552915104240066 -0.2956655714008991 0  -0.9491843487067305 -0.3147206255874881 0  -0.9426971406815464 -0.3336496679914978 0  -0.9358324837779862 -0.3524451195660471 0  -0.9285931265532875 -0.371099454753022 0  -0.9209819675918909 -0.3896052044962557 0  -0.9130020543448704 -0.407954959232078 0  -0.9046565819097541 -0.4261413718560548 0  -0.8959488917512338 -0.4441571606647086 0  -0.8868824703632655 -0.4619951122710623 0  -0.8774609478731046 -0.4796480844928214 0  -0.8676880965878293 -0.4971090092120538 0  -0.8575678294839373 -0.5143708952052095 0  -0.84710419864062 -0.5314268309423537 0  -0.8363013936173395 -0.5482699873544929 0  -0.8251637397763596 -0.5648936205678838 0  -0.8136956965509061 -0.5812910746042259 0  -0.8019018556596399 -0.5974557840456699 0  -0.7897869392681682 -0.61338127666356 0  -0.777355798098326 -0.6290611760098652 0  -0.7646134094859816 -0.6444892039702625 0  -0.7515648753881492 -0.6596591832778468 0  -0.7382154203402048 -0.6745650399864603 0  -0.7245703893640192 -0.6892008059026583 0  -0.7106352458278522 -0.7035606209753272 0  -0.6964155692588621 -0.7176387356420046 0  -0.6819170531091017 -0.7314295131309637 0  -0.667145502475907 -0.7449274317181303 0  -0.6521068317775756 -0.758127086937944 0  -0.6368070623852792 -0.7710231937472641 0  -0.6212523202121544 -0.7836105886414596 0  -0.6054488332605283 -0.795884231721841 0  -0.5894029291282762 -0.8078392087135956 0  -0.5731210324752977 -0.8194707329334274 0  -0.5566096624511304 -0.8307741472061095 0  -0.5398754300847344 -0.8417449257291802 0  -0.5229250356374798 -0.8523786758850437 0  -0.5057652659204195 -0.8626711399997379 0  -0.4884029915768943 -0.872618197047678 0  -0.4708451643315825 -0.8822158643016828 0  -0.4530988142070805 -0.8914602989276289 0  -0.4351710467091333 -0.900347799523094 0  -0.4170690399816467 -0.9088748075993677 0  -0.3988000419326073 -0.9170379090062475 0  -0.3803713673320777 -0.9248338352990366 0  -0.3617903948834162 -0.9322594650472055 0  -0.3430645642688988 -0.9393118250841893 0  -0.3242013731709283 -0.9459880916978207 0  -0.3052083742700169 -0.9522855917609241 0  -0.2860931722207477 -0.9582018038016155 0  -0.2668634206069305 -0.963734359012881 0  -0.2475268188771631 -0.968881042201029 0  -0.2280911092620301 -0.9736397926726376 0  -0.2085640736741706 -0.9780087050596407 0  -0.1889535305924619 -0.9819860300822225 0  -0.1692673319315544 -0.9855701752492173 0  -0.1495133598980269 -0.9887597054957302 0  -0.1296995238344092 -0.9915533437577262 0  -0.1098337570523396 -0.9939499714833577 0  -0.08992401365612945 -0.9959486290808237 0  -0.06997826535799691 -0.9975485163025836 0  -0.05000449828625168 -0.9987489925657699 0  -0.030010709787
[...]
<PointData  Scalars="Displacement"> 
<DataArray  type="Float64"  Name="Displacement"  format="ascii">0.0000000000000000e+00  0.0000000000000000e+00  0.0000000000000000e+00  0.0000000000000000e+00  0.0000000000000000e+00  0.0000000000000000e+00  0.0000000000000000e+00  0.0000000000000000e+00  0.0000000000000000e+00  0.0000000000000000e+00  0.0000000000000000e+00  0.0000000000000000e+00  0.0000000000000000e+00  0.0000000000000000e+00  0.0000000000000000e+00  0.0000000000000000e+00  0.0000000000000000e+00  0.0000000000000000e+00  0.0000000000000000e+00  0.0000000000000000e+00  0.0000000000000000e+00  0.0000000000000000e+00  0.0000000000000000e+00  0.0000000000000000e+00  0.0000000000000000e+00  0.0000000000000000e+00  0.0000000000000000e+00  0.0000000000000000e+00  0.0000000000000000e+00  0.0000000000000000e+00  0.0000000000000000e+00  0.0000000000000000e+00  0.0000000000000000e+00  0.0000000000000000e+00  0.0000000000000000e+00  0.0000000000000000e+00  0.0000000000000000e+00  0.0000000000000000e+00  0.0000000000000000e+00  0.0000000000000000e+00  0.0000000000000000e+00  0.0000000000000000e+00  0.0000000000000000e+00  0.0000000000000000e+00  0.0000000000000000e+00  0.0000000000000000e+00  0.0000000000000000e+00  0.0000000000000000e+00  0.0000000000000000e+00  0.0000000000000000e+00  0.0000000000000000e+00  0.0000000000000000e+00  0.0000000000000000e+00  0.0000000000000000e+00  0.0000000000000000e+00  0.0000000000000000e+00  0.0000000000000000e+00  0.0000000000000000e+00  0.0000000000000000e+00  0.0000000000000000e+00  0.0000000000000000e+00  0.0000000000000000e+00  0.0000000000000000e+00  0.0000000000000000e+00  0.0000000000000000e+00  0.0000000000000000e+00  0.0000000000000000e+00  0.0000000000000000e+00  0.0000000000000000e+00  0.0000000000000000e+00  0.0000000000000000e+00  0.0000000000000000e+00  0.0000000000000000e+00  0.0000000000000000e+00  0.0000000000000000e+00  0.0000000000000000e+00  0.0000000000000000e+00  0.0000000000000000e+00  0.0000000000000000e+00  0.0000000000000000e+00  0.0000000000000000e+00  0.0000000000000000e+00  0.0000000000000000e+00  0.0000000000000000e+00  0.0000000000000000e+00  0.0000000000000000e+00  0.0000000000000000e+00  0.0000000000000000e+00  0.0000000000000000e+00  0.0000000000000000e+00  0.0000000000000000e+00  0.0000000000000000e+00  0.0000000000000000e+00  0.0000000000000000e+00  0.0000000000000000e+00  0.0000000000000000e+00  0.0000000000000000e+00  0.0000000000000000e+00  0.0000000000000000e+00  0.0000000000000000e+00  0.0000000000000000e+00  0.0000000000000000e+00  0.0000000000000000e+00  0.0000000000000000e+00  0.0000000000000000e+00  0.0000000000000000e+00  0.0000000000000000e+00  0.0000000000000000e+00  0.0000000000000000e+00  0.0000000000000000e+00  0.0000000000000000e+00  0.0000000000000000e+00  0.0000000000000000e+00  0.0000000000000000e+00  0.0000000000000000e+00  0.0000000000000000e+00  0.0000000000000000e+00  0.0000000000000000e+00  0.0000000000000000e+00  0.0000000000000000e+00  0.0000000000000000e+00  0.0000000000000000e+00  0.0000000000000000e+00  0.0000000000000000e+00  0.0000000000000000e+00  0.0000000000000000e+00  0.0000000000000000e+00  0.0000000000000000e+00  0.0000000000000000e+00  0.0000000000000000e+00  0.0000000000000000e+00  0.0000000000000000e+00  0.0000000000000000e+00  0.0000000000000000e+00  0.0000000000000000e+00  0.0000000000000000e+00  0.0000000000000000e+00  0.0000000000000000e+00  0.0000000000000000e+00  0.0000000000000000e+00  0.0000000000000000e+00  0.0000000000000000e+00  0.0000000000000000e+00  0.0000000000000000e+00  0.0000000000000000e+00  0.0000000000000000e+00  0.0000000000000000e+00  0.0000000000000000e+00  0.0000000000000000e+00  0.0000000000000000e+00  0.0000000000000000e+00  0.0000000000000000e+00  0.0000000000000000e+00  0.0000000000000000e+00  0.0000000000000000e+00  0.0000000000000000e+00  0.0000000000000000e+00  0.0000000000000000e+00  0.0000000000000000e+00  0.0000000000000000e+00  0.0000000000000000e+00  0.0000000000000000e+00  0.0000000000000000e+00  0.0000000000000000e+00  0.0000000000000000e+00  0.0000000000000000e+00  0.0000000000000000e+00  0.0000000000000000e+00  0.0000000000000000e+00  0.0000000000000000e+00  0.0000000000000000e+00  0.0000000000000000e+00  0.0000000000000000e+00  0.0000000000000000e+00  0.0000000000000000e+00  0.0000000000000000e+00  0.0000000000000000e+00  0.0000000000000000e+00  0.0000000000000000e+00  0.0000000000000000e+00  0.0000000000000000e+00  0.0000000000000000e+00  0.0000000000000000e+00  0.0000000000000000e+00  0.0000000000000000e+00  0.0000000000000000e+00  0.0000000000000000e+00  0.0000000000000000e+00  0.0000000000000000e+00  0.0000000000000000e+00  0.0000000000000000e+00  0.0000000000000000e+00  0.0000000000000000e+00  0.0000000000000000e+00  0.0000000000000000e+00  0.0000000000000000e+00  0.0000000000000000e+00  0.0000000000000000e+00  0.0000000000000000e+00  0.0000000000000000e+00  0.0000000000000000e+00  0.0000000000000000e+00  0.0000000000000000e+00  0.0000000000000000e+00  0.0000000000000000e+00  0.0000000000000000e+00  0.0000000000000000e+00  0.0000000000000000e+00  0.0000000000000000e+00  0.0000000000000000e+00  0.0000000000000000e+00  0.0000000000000000e+00  0.0000000000000000e+00  0.0000000000000000e+00  0.0000000000000000e+00  0.0000000000000000e+00  0.0000000000000000e+00  0.0000000000000000e+00  0.0000000000000000e+00  0.0000000000000000e+00  0.0000000000000000e+00  0.0000000000000000e+00  0.0000000000000000e+00  0.0000000000000000e+00  0.0000000000000000e+00  0.0000000000000000e+00  0.0000000000000000e+00  0.0000000000000000e+00  0.0000000000000000e+00  0.0000000000000000e+00  0.0000000000000000e+00  0.0000000000000000e+00  0.0000000000000000e+00  0.0000000000000000e+00  0.0000000000000000e+00  0.0000000000000000e+00  0.0000000000000000e+00  0.0000000000000000e+00  0.0000000000000000e+00  0.0000000000000000e+00  0.0000000000000000e+00  0.0000000000000000e+00  0.0000000000000000e+00  0.0000000000000000e+00  0.0000000000000000e+00  0.0000000000000000e+00  0.0000000000000000e+00  0.0000000000000000e+00  0.0000000000000000e+00  0.0000000000000000e+00  0.0000000000000000e+00  0.0000000000000000e+00  0.0000000000000000e+00  0.0000000000000000e+00  0.0000000000000000e+00  0.0000000000000000e+00  0.0000000000000000e+00  0.0000000000000000e+00  0.0000000000000000e+00  0.0000000000000000e+00  0.0000000000000000e+00  0.0000000000000000e+00  0.0000000000000000e+00  0.0000000000000000e+00  0.0000000000000000e+00  0.0000000000000000e+00  0.0000000000000000e+00  0.0000000000000000e+00  0.0000000000000000e+00  0.0000000000000000e+00  0.0000000000000000e+00  0.0000000000000000e+00  0.0000000000000000e+00  0.0000000000000000e+00  0.0000000000000000e+00  0.0000000000000000e+00  0.0000000000000000e+00  0.0000000000000000e+00  0.0000000000000000e+00  0.0000000000000000e+00  0.0000000000000000e+00  0.0000000000000000e+00  0.0000000000000000e+00  0.0000000000000000e+00  0.0000000000000000e+00  0.0000000000000000e+00  0.0000000000000000e+00  0.0000000000000000e+00  0.0000000000000000e+00  0.0000000000000000e+00  0.0000000000000000e+00  0.0000000000000000e+00  0.0000000000000000e+00  0.0000000000000000e+00  0.0000000000000000e+00  0.0000000000000000e+00  0.0000000000000000e+00  0.0000000000000000e+00  0.0000000000000000e+00  0.0000000000000000e+00  0.0000000000000000e+00  0.0000000000000000e+00  0.0000000000000000e+00  0.0000000000000000e+00  0.0000000000000000e+00  0.0000000000000000e+00  0.0000000000000000e+00  0.0000000000000000e+00  0.0000000000000000e+00  0.0000000000000000e+00  0.0000000000000000e+00  0.0000000000000000e+00  0.0000000000000000e+00  0.0000000000000000e+00  1.3065994288073146e-01  2.0867067480926715e-05  2.1776637583530734e-05  2.1584167620913164e-05  2.1314401537199455e-05  2.0834647475166937e-05  3.0023597332409942e-07  1.8747316784162492e-09  8.2359467130510051e-10  1.2084366957056947e-10  1.3838142194454837e-10  8.1034500967487627e-02  8.1225965022512235e-12  9.1818995139239123e-12  1.0207020502349645e-01  1.1903281996755860e-01  5.1322990585479414e-13  7.2235719230839066e-13  4.4451853026385169e-13  3.2539217762641000e-13  2.2923683008636456e-13  1.8427609277411937e-13  2.1791937780777569e-13  3.6712107300932062e-03  3.7096258149160910e-03  1.8928186311308814e-01  1.1950789227718713e-12  1.3303611769643954e-14  2.8888857878788986e-14  8.4556492878409332e-05  2.1108962110944601e-14  1.4070749837235286e-01  2.3912024837662971e-01  3.6144443051940931e-05  7.0116980139895744e-15  9.5155607740577268e-16  7.8237659033667600e-16  6.3641661422178341e-16  6.8983103002844447e-16  9.5212976100706438e-07  5.5793240585677871e-07  3.4224704552464094e-07  2.4051587076144131e-07  2.5496921691262103e-01  2.9887536391483212e-16  2.7226218366400678e-16  1.7611394433626739e-16  1.7836546667787745e-16  5.4507794602438275e-08  8.3217368063516177e-08  3.7661855254137602e-11  1.0430839134861846e-06  1.8070271076473129e-07  1.3531575492741212e-04  5.4834143834641800e-17  2.5535336820932975e-01  1.9042068844851777e-16  5.2858154517627793e-17  4.7100951619361071e-02  3.7873237846874856e-17  4.7246410209803804e-17  1.5608665297166979e-10  3.7486662244803938e-17  5.3531429410142532e-17  4.6892149858947720e-02  1.9402415203459283e-01  5.0781023038204576e-03  1.2639643985784077e-04  6.3718907746456947e-03  2.4533243113819417e-01  4.9100125331729569e-02  6.5679164815894945e-08  3.5956847426422570e-09  8.1520205698757058e-09  8.6213830727242830e-09  1.9477865316085172e-02  2.3968852418521507e-17  1.5743754596258862e-03  2.0755270380892477e-02  3.6928438045198220e-10  1.0522490383204239e-17  2.9489330522121798e-03  1.2534019954201450e-17  1.3368202767641901e-17  6.9200816527147518e-18  2.3464821814546827e-01  9.5207831022557297e-18  4.5486843293982753e-18  6.1782718052595331e-18  7.0561768398802963e-03  6.2949691801309927e-11  5.0896536342536478e-18  4.4177927168150395e-09  4.1236202105773140e-18  6.8598481294704196e-11  2.5585602770332655e-01  9.9625526110159273e-18  3.0913352260990931e-18  2.8566417344873502e-11  6.3337902379029233e-12  5.6588335394476597e-10  2.6124294201855385e-11  2.9504545491589806e-18  2.8564303831389646e-04  1.7799974850453146e-06  1.9890589833141625e-06  6.0884166112568745e-04  6.5477423439173902e-12  1.8314583967705934e-11  1.3796467408500273e-18  9.0530734734758423e-04  9.0706872046728912e-19  1.4274520310247570e-18  4.2702442030815333e-08  2.0178967003377138e-08  3.8630645587101998e-12  8.1372049773452433e-19  1.9208629583256827e-18  1.8873153158584986e-18  2.4484896403533812e-01  3.5752906687767195e-04  5.5643557219000580e-14  1.1285174648003224e-01  4.6322816732904160e-17  1.0715218289665460e-12  1.2194307901017003e-10  1.5827057077615926e-18  6.9523944673736203e-19  5.1431518120784380e-13  7.1003791825834137e-13  1.5431534448553363e-10  1.1512143603048478e-12  3.2218897262810503e-09  1.1229528224486961e-04  6.1170537959280986e-08  6.7226137212523907e-12  1.4615131509681143e-18  1.3095207337005857e-01  7.8952625016636292e-03  6.0486817452225367e-02  1.9674497836586516e-01  1.3245603236396128e-01  1.5888993020768111e-14  9.4889779759069269e-04  3.7966870116277609e-08  1.4442911606607899e-14  2.9287573393058114e-14  9.0318952569560199e-02  2.5423458470137328e-01  1.0416940542766466e-09  1.8572363875430851e-19  2.7280117144731078e-08  6.8798887627991995e-03  9.9483680025471766e-14  9.1124429595536390e-14  5.3865264589184903e-17  1.7419337195166826e-19  3.4729248759514122e-14  2.1497535018114899e-19  1.5142736174028871e-19  1.2322462897499310e-19  1.5959566709431458e-14  3.5440112606284508e-10  2.5552452965240257e-19  1.8178541105893759e-15  1.0992956344233107e-05  8.8741737752663289e-14  3.1570781637993521e-18  1.1205792049410567e-19  1.7065466549236664e-14  8.8895668153124384e-08  1.8652740380232638e-01  2.5998444128070747e-14  4.7089126487897632e-03  1.1266743248074297e-19  1.7349959045053588e-04  9.4479530943617705e-20  2.5633556446333081e-13  1.0897539016484590e-19  4.9819763855357715e-05  1.0360536186208912e-14  3.7091210015200800e-06  5.7935680428412722e-08  2.0606650952423591e-01  2.1409941001804246e-19  9.9766072147702007e-07  9.3048270303186252e-10  4.1653407000065678e-05  1.3037798536234725e-19  5.5794937934544004e-16  1.4684476806827478e-19  2.5445014220731432e-01  7.7415410403329418e-20  1.0422834281696953e-19  3.3299605239970352e-06  3.5039259838275660e-02  1.2342808434662203e-13  6.1542059401005681e-15  9.8256124884157542e-06  2.7828768661400645e-10  2.1340082919418183e-08  1.2263989373601755e-07  2.6655326758915303e-05  6.6938398506501928e-10  2.1234072331883152e-08  4.7751152007677599e-15  4.2936297487508596e-15  1.6994919398550457e-01  1.0545280261500159e-17  4.8228181288281961e-15  3.1510411550322602e-13  2.4940895763504414e-01  1.8031867517339206e-01  7.1531474414627280e-20  5.6651108673186280e-20  2.4273251866951413e-14  6.9526395765862639e-05  1.0810418755858288e-19  1.0046621818330231e-09  1.7181056141925653e-10  9.3307747368133745e-17  3.8515564417915877e-11  1.4679742890697089e-03  2.5561803118190704e-09  2.1961074599910123e-10  1.0015896596462857e-19  5.9998706445424553e-12  4.1052386030408156e-20  1.9810822842290282e-10  4.8412037438655456e-20  5.5632068248587557e-19  1.2310004170824757e-19  3.7456805408201333e-20  2.4312445216865439e-16  5.6402259823920133e-20  1.8065711392120735e-04  2.6765344224253348e-08  9.3136269910151240e-16  1.4955355881807257e-15  1.4880212522989875e-01  6.4115442305691134e-02  8.7353536840725713e-10  5.4809568024803042e-09  7.1282807820698565e-19  1.5020790638079043e-05  3.5488974784408675e-20  3.8704549984652263e-20  3.7618631912356708e-20  8.9317569823185797e-03  5.6923009978167764e-05  5.1788273951573275e-07  7.5302542379963863e-07  1.1195707921690408e-01  1.8096354745031759e-01  5.0249335148969962e-16  3.2625699032767909e-03  3.0697552227806265e-14  1.4012996868149039e-06  2.8320580225094055e-19  3.3658808810487855e-20  2.7713176749038316e-19  7.8025052200029059e-12  1.3686699304625220e-15  7.1060347102218299e-08  8.2591938326320935e-05  2.2979280861591587e-03  2.9774934915268714e-16  1.1015798230580524e-18  3.3584338999883458e-19  6.4857746930586741e-08  2.1036690149223735e-20  7.6827005682057947e-03  1.1474683763420867e-04  1.9405395215914019e-13  5.5621294138576999e-15  8.2466846058626486e-12  2.5021890277366513e-02  4.3948571604861056e-02  5.9861668972048488e-03  1.5811379280743054e-02  5.8314053914794203e-02  1.9487673380180931e-01  2.2003332330250441e-01  2.5261809977566791e-10  1.1798147225328441e-11  3.8608953752130900e-13  6.1268783876350763e-02  3.5544686043040389e-20  1.7682321114012317e-15  1.4908418196483686e-03  2.1403179902166503e-01  1.2915595561617294e-04  7.2554814756472576e-10  2.9242598122753402e-07  2.4030194857954337e-01  2.2165880598028103e-20  8.7448420026207794e-07  3.0744602534463702e-20  2.4337258520019268e-20  2.8141649920401501e-20  2.5590429442539497e-01  1.7080980443778965e-01  4.2459156082598169e-02  1.6775183304415334e-01  3.6080376792215039e-11  3.0963639062544965e-09  1.4625703558614611e-12  3.6830879807996870e-08  2.3556887022709450e-10  9.0836054848315075e-10  1.1028867934769301e-06  3.0959985429130037e-10  5.9638244052743421e-02  1.5111210141929670e-13  2.2054626832966714e-01  1.8790613006681756e-01  9.5845258674395263e-08  1.5740204315736163e-12  1.7690822187144808e-11  2.6631428606077025e-20  9.5889283675567247e-15  1.9545908813345508e-14  1.2696047832640680e-20  1.6780123011614814e-02  1.7558033611645756e-20  1.5049655822911812e-20  2.3840257015151106e-16  1.3756314327538841e-03  7.7495475273830902e-03  1.0157198417698779e-01  1.6587996183637175e-20  1.4065226292396198e-12  2.8528741543421282e-10  6.4548538359137107e-06  2.3134462717660322e-02  3.7901946427497241e-13  1.6162030230554644e-05  1.7315408673735284e-02  1.9085383391182154e-01  3.4993604978660563e-11  4.0793172025044597e-15  2.1190117785594519e-05  1.0972707977265250e-16  5.8037288327483570e-17  3.9661420997559974e-11  1.8125595298306335e-20  3.1203395953241353e-15  1.9992052372381233e-14  1.3112054461339965e-20  3.0114382465014564e-11  4.4279929012016749e-11  1.2810316266889436e-20  1.0472139888994684e-16  7.3146589040553905e-21  6.7810058822059743e-16  9.0913672819503062e-17  4.4189013490238603e-07  1.6061914762512705e-01  5.0143764628672935e-17  2.5566448713445966e-01  2.4359119340054755e-01  9.8576750567807488e-14  1.4175227541323969e-20  2.1504382789631627e-08  6.6487637908396708e-17  3.7799005289696826e-02  7.0917512294475892e-17  6.1245467669586089e-12  2.1170059292287097e-01  1.7251748825069158e-15  1.0409039941851071e-20  1.2189475010457291e-19  2.5017489050378672e-15  7.9873794080037169e-03  3.1676303004241535e-04  6.3751967547811171e-12  1.0666446250163813e-19  2.5047709143125063e-01  1.3117032824960560e-08  9.4840970698979144e-21  2.9292614260332127e-06  9.3857581760260259e-21  6.3179972478863979e-16  1.5859407243387242e-05  2.6807055299662376e-20  1.9706876356151898e-01  9.9851444045839763e-21  2.4476571992519521e-15  1.0059090431643926e-20  1.1868768744642600e-03  7.5179831787128075e-08  3.5867369396110779e-11  1.0567132473298558e-07  7.7434238455868301e-21  6.3396071117034361e-16  1.2634897956689103e-03  1.3188841456996040e-19  7.0294002786891000e-09  2.2457487030422537e-13  8.8914365730143280e-21  7.9795745307284017e-21  8.2337527016957240e-07  1.6874826342365434e-17  1.2268192651721313e-04  3.9984015324986522e-13  1.1625351187097641e-06  5.5402363703333373e-08  7.7053183416534207e-21  2.8636327951111108e-16  1.5512435761700477e-15  2.5982439933840356e-17  3.0059768565013585e-17  3.1860499712409000e-04  6.9244927886000923e-03  2.2218406599555615e-01  5.3574814241083785e-03  1.2907724467334375e-15  1.0443388434536391e-01  3.0741766591631851e-05  4.5939958120362662e-16  4.8077976913942918e-21  1.6464509458779776e-19  3.3769834094359858e-09  1.7924528681707260e-10  5.5856030053314049e-13  4.4470163308169882e-03  1.2545911855736344e-12  6.6266083296651015e-21  5.2699744443236568e-21  4.5331183597551710e-20  1.7505327194304873e-10  7.5060031822665525e-17  1.4277178947713040e-13  3.4557317356291487e-17  1.9356783168924382e-16  1.9308951558013697e-16  2.9431083753408353e-09  1.1293024035743006e-15  1.9840492029515848e-05  2.3305240910925741e-08  3.2915953011904826e-07  1.4431480265103432e-08  3.9353120610573482e-06  8.8879730689179137e-04  1.9297463766111937e-17  5.4702976020380386e-04  4.1910850228490582e-14  2.2455686937489286e-01  7.3188073322825391e-10  1.5797159278766864e-05  1.5343647511995466e-06  2.1241942982916200e-03  1.5122933449278524e-17  5.7306895412903908e-21  6.3495542148682996e-21  1.2391694629502593e-01  2.5548869272417671e-11  6.2882659473363422e-06  2.0396903901206843e-05  1.8751059878189741e-18  2.2283801780396302e-08  6.4108140630196299e-21  2.0436927904931740e-01  4.0579363182221814e-02  4.3069195149937148e-05  1.1743927251055621e-13  2.0203806720475049e-16  2.1836491766487943e-17  7.7437254907827303e-13  1.4981298197357768e-12  8.6205759150972767e-08  8.2532877739702458e-18  4.9911340803249123e-05  5.7432672965357641e-06  1.4596465606268245e-15  2.0821061004081803e-01  1.7130722254240326e-12  6.6589045590785344e-06  9.9938935015139582e-12  2.0215513771453483e-09  2.1495137382616574e-10  7.8505730016406613e-14  3.9392876192633466e-21  1.0314723475215586e-16  4.1569452094126326e-21  7.6755675846610029e-18  2.2460490029962865e-19  1.4969419381347850e-02  7.7219143284575088e-15  4.2426589150896171e-08  6.4671985038263092e-14  6.1102332614120587e-04  9.5580171077827542e-08  3.2411246398316565e-02  2.0720583341674640e-19  5.1189112537557732e-04  5.8134122945274083e-20  3.2753786783375547e-21  9.7699688654941821e-21  2.0175618959686600e-06  5.1520631877604742e-18  4.2259702591724160e-21  1.4926733156996124e-06  7.7514750549644120e-07  1.0919097298958888e-09  5.6559537912203923e-14  6.1404292022764822e-18  4.6305988488064989e-14  5.6551685964013108e-13  4.9817815572762858e-10  2.1658004381997541e-08  5.0789587263176061e-10  1.1759614802537502e-06  3.2365423174945882e-02  1.0107421606524277e-12  1.2