<?xml version="1.0"?>
<VTKFile type="UnstructuredGrid"  version="0.1"  >
<UnstructuredGrid>
<Piece  NumberOfPoints="20054" NumberOfCells="39478">
<Points>
<DataArray  type="Float64"  NumberOfComponents="3"  format="ascii">1 0 0  0.9997998037428526 0.02000880895389431 0  0.9991992951284931 0.04000960653046352 0  0.9981987145960756 0.05999438456007805 0  0.9967984627705549 0.07995514128721501 0  0.9949991003022806 0.09988388457430118 0  0.9928013476425149 0.1197726351017051 0  0.9902060847549715 0.139613429562597 0  0.987214350763483 0.1593983238513969 0  0.9838273435359444 0.1791193962445356 0  0.9800464192046954 0.198768750572253 0  0.9758730916235354 0.2183385193801655 0  0.9713090317615876 0.237820867079336 0  0.9663560670342555 0.2572079930835849 0  0.9610161805715396 0.2764921349327862 0  0.9552915104240066 0.2956655714008991 0  0.9491843487067304 0.3147206255874884 0  0.9426971406815462 0.3336496679914983 0  0.9358324837779861 0.3524451195660473 0  0.9285931265532873 0.3710994547530225 0  0.9209819675918909 0.3896052044962556 0  0.9130020543448703 0.4079549592320781 0  0.9046565819097542 0.4261413718560547 0  0.8959488917512338 0.4441571606647087 0  0.8868824703632656 0.4619951122710622 0  0.8774609478731046 0.4796480844928215 0  0.8676880965878291 0.4971090092120542 0  0.8575678294839372 0.5143708952052096 0  0.8471041986406199 0.5314268309423539 0  0.8363013936173391 0.5482699873544935 0  0.8251637397763597 0.5648936205678837 0  0.8136956965509062 0.5812910746042258 0  0.8019018556596399 0.5974557840456699 0  0.7897869392681683 0.6133812766635599 0  0.777355798098326 0.6290611760098652 0  0.7646134094859813 0.6444892039702628 0  0.7515648753881492 0.6596591832778468 0  0.7382154203402046 0.6745650399864606 0  0.7245703893640189 0.6892008059026586 0  0.7106352458278521 0.7035606209753273 0  0.6964155692588616 0.7176387356420051 0  0.6819170531091018 0.7314295131309636 0  0.6671455024759069 0.7449274317181303 0  0.6521068317775753 0.7581270869379442 0  0.6368070623852795 0.7710231937472638 0  0.6212523202121545 0.7836105886414595 0  0.6054488332605282 0.795884231721841 0  0.5894029291282759 0.8078392087135958 0  0.5731210324752972 0.8194707329334278 0  0.5566096624511305 0.8307741472061095 0  0.5398754300847343 0.8417449257291802 0  0.5229250356374803 0.8523786758850435 0  0.5057652659204196 0.8626711399997378 0  0.4884029915768944 0.8726181970476778 0  0.4708451643315825 0.8822158643016828 0  0.45309881420708 0.8914602989276292 0  0.4351710467091336 0.9003477995230937 0  0.4170690399816468 0.9088748075993677 0  0.398800041932607 0.9170379090062476 0  0.3803713673320772 0.9248338352990368 0  0.3617903948834157 0.9322594650472057 0  0.3430645642688987 0.9393118250841893 0  0.3242013731709288 0.9459880916978206 0  0.3052083742700172 0.952285591760924 0  0.2860931722207478 0.9582018038016155 0  0.2668634206069304 0.963734359012881 0  0.2475268188771628 0.9688810422010291 0  0.2280911092620296 0.9736397926726377 0  0.2085640736741707 0.9780087050596407 0  0.1889535305924618 0.9819860300822225 0  0.1692673319315541 0.9855701752492174 0  0.1495133598980264 0.9887597054957302 0  0.1296995238344084 0.9915533437577263 0  0.1098337570523395 0.9939499714833577 0  0.08992401365612977 0.9959486290808237 0  0.06997826535799723 0.9975485163025836 0  0.05000449828625179 0.9987489925657699 0  0.03001070978771124 0.9995495772086734 0  0.01000490522562346 0.9999499496831961 0  -0.01000490522562333 0.9999499496831961 0  -0.03001070978771133 0.9995495772086734 0  -0.05000449828625144 0.9987489925657699 0  -0.06997826535799688 0.9975485163025836 0  -0.08992401365612987 0.9959486290808237 0  -0.1098337570523394 0.9939499714833577 0  -0.1296995238344082 0.9915533437577263 0  -0.1495133598980262 0.9887597054957303 0  -0.1692673319315537 0.9855701752492174 0  -0.1889535305924614 0.9819860300822226 0  -0.2085640736741705 0.9780087050596407 0  -0.2280911092620295 0.9736397926726377 0  -0.2475268188771627 0.9688810422010291 0  -0.2668634206069302 0.9637343590128811 0  -0.2860931722207475 0.9582018038016156 0  -0.3052083742700173 0.9522855917609239 0  -0.3242013731709289 0.9459880916978205 0  -0.3430645642688986 0.9393118250841894 0  -0.3617903948834154 0.9322594650472058 0  -0.380371367332077 0.924833835299037 0  -0.3988000419326071 0.9170379090062476 0  -0.4170690399816465 0.9088748075993678 0  -0.4351710467091335 0.9003477995230939 0  -0.4530988142070799 0.8914602989276292 0  -0.4708451643315824 0.8822158643016829 0  -0.4884029915768945 0.8726181970476778 0  -0.5057652659204197 0.8626711399997378 0  -0.5229250356374801 0.8523786758850437 0  -0.5398754300847342 0.8417449257291804 0  -0.5566096624511303 0.8307741472061098 0  -0.5731210324752971 0.8194707329334279 0  -0.589402929128276 0.8078392087135957 0  -0.6054488332605281 0.7958842317218411 0  -0.6212523202121542 0.7836105886414597 0  -0.6368070623852793 0.7710231937472639 0  -0.652106831777575 0.7581270869379444 0  -0.6671455024759069 0.7449274317181304 0  -0.6819170531091018 0.7314295131309636 0  -0.6964155692588616 0.7176387356420052 0  -0.7106352458278521 0.7035606209753273 0  -0.7245703893640187 0.6892008059026588 0  -0.7382154203402043 0.6745650399864608 0  -0.751564875388149 0.6596591832778469 0  -0.7646134094859813 0.6444892039702628 0  -0.7773557980983258 0.6290611760098654 0  -0.7897869392681683 0.6133812766635599 0  -0.8019018556596398 0.59745578404567 0  -0.8136956965509062 0.5812910746042258 0  -0.8251637397763595 0.5648936205678839 0  -0.836301393617339 0.5482699873544935 0  -0.8471041986406197 0.5314268309423542 0  -0.8575678294839372 0.5143708952052097 0  -0.8676880965878292 0.497109009212054 0  -0.8774609478731045 0.4796480844928216 0  -0.8868824703632656 0.4619951122710621 0  -0.8959488917512338 0.4441571606647088 0  -0.904656581909754 0.426141371856055 0  -0.9130020543448703 0.4079549592320783 0  -0.920981967591891 0.3896052044962555 0  -0.9285931265532872 0.3710994547530226 0  -0.9358324837779861 0.3524451195660473 0  -0.9426971406815462 0.3336496679914984 0  -0.9491843487067303 0.3147206255874888 0  -0.9552915104240065 0.2956655714008993 0  -0.9610161805715396 0.2764921349327862 0  -0.9663560670342555 0.2572079930835851 0  -0.9713090317615876 0.2378208670793361 0  -0.9758730916235353 0.2183385193801658 0  -0.9800464192046954 0.198768750572253 0  -0.9838273435359444 0.1791193962445354 0  -0.987214350763483 0.159398323851397 0  -0.9902060847549714 0.1396134295625972 0  -0.9928013476425149 0.1197726351017052 0  -0.9949991003022804 0.09988388457430147 0  -0.9967984627705549 0.07995514128721509 0  -0.9981987145960756 0.05999438456007793 0  -0.9991992951284931 0.04000960653046362 0  -0.9997998037428526 0.02000880895389464 0  -1 1.224646799147353e-16 0  -0.9997998037428526 -0.0200088089538944 0  -0.9991992951284931 -0.04000960653046338 0  -0.9981987145960756 -0.05999438456007812 0  -0.9967984627705549 -0.07995514128721484 0  -0.9949991003022806 -0.09988388457430078 0  -0.9928013476425149 -0.1197726351017049 0  -0.9902060847549715 -0.1396134295625965 0  -0.9872143507634831 -0.1593983238513963 0  -0.9838273435359444 -0.1791193962445356 0  -0.9800464192046953 -0.1987687505722532 0  -0.9758730916235354 -0.2183385193801655 0  -0.9713090317615876 -0.2378208670793363 0  -0.9663560670342556 -0.2572079930835848 0  -0.9610161805715396 -0.276492134932786 0  -0.9552915104240066 -0.2956655714008991 0  -0.9491843487067305 -0.3147206255874881 0  -0.9426971406815464 -0.3336496679914978 0  -0.9358324837779862 -0.3524451195660471 0  -0.9285931265532875 -0.371099454753022 0  -0.9209819675918909 -0.3896052044962557 0  -0.9130020543448704 -0.407954959232078 0  -0.9046565819097541 -0.4261413718560548 0  -0.8959488917512338 -0.4441571606647086 0  -0.8868824703632655 -0.4619951122710623 0  -0.8774609478731046 -0.4796480844928214 0  -0.8676880965878293 -0.4971090092120538 0  -0.8575678294839373 -0.5143708952052095 0  -0.84710419864062 -0.5314268309423537 0  -0.8363013936173395 -0.5482699873544929 0  -0.8251637397763596 -0.5648936205678838 0  -0.8136956965509061 -0.5812910746042259 0  -0.8019018556596399 -0.5974557840456699 0  -0.7897869392681682 -0.61338127666356 0  -0.777355798098326 -0.6290611760098652 0  -0.7646134094859816 -0.6444892039702625 0  -0.7515648753881492 -0.6596591832778468 0  -0.7382154203402048 -0.6745650399864603 0  -0.7245703893640192 -0.6892008059026583 0  -0.7106352458278522 -0.7035606209753272 0  -0.6964155692588621 -0.7176387356420046 0  -0.6819170531091017 -0.7314295131309637 0  -0.667145502475907 -0.7449274317181303 0  -0.6521068317775756 -0.758127086937944 0  -0.6368070623852792 -0.7710231937472641 0  -0.6212523202121544 -0.7836105886414596 0  -0.6054488332605283 -0.795884231721841 0  -0.5894029291282762 -0.8078392087135956 0  -0.5731210324752977 -0.8194707329334274 0  -0.5566096624511304 -0.8307741472061095 0  -0.5398754300847344 -0.8417449257291802 0  -0.5229250356374798 -0.8523786758850437 0  -0.5057652659204195 -0.8626711399997379 0  -0.4884029915768943 -0.872618197047678 0  -0.4708451643315825 -0.8822158643016828 0  -0.4530988142070805 -0.8914602989276289 0  -0.4351710467091333 -0.900347799523094 0  -0.4170690399816467 -0.9088748075993677 0  -0.3988000419326073 -0.9170379090062475 0  -0.3803713673320777 -0.9248338352990366 0  -0.3617903948834162 -0.9322594650472055 0  -0.3430645642688988 -0.9393118250841893 0  -0.3242013731709283 -0.9459880916978207 0  -0.3052083742700169 -0.9522855917609241 0  -0.2860931722207477 -0.9582018038016155 0  -0.2668634206069305 -0.963734359012881 0  -0.2475268188771631 -0.968881042201029 0  -0.2280911092620301 -0.9736397926726376 0  -0.2085640736741706 -0.9780087050596407 0  -0.1889535305924619 -0.9819860300822225 0  -0.1692673319315544 -0.9855701752492173 0  -0.1495133598980269 -0.9887597054957302 0  -0.1296995238344092 -0.9915533437577262 0  -0.1098337570523396 -0.9939499714833577 0  -0.08992401365612945 -0.9959486290808237 0  -0.06997826535799691 -0.9975485163025836 0  -0.05000449828625168 -0.9987489925657699 0  -0.030010709787
[...]
<PointData  Scalars="Displacement"> 
<DataArray  type="Float64"  Name="Displacement"  format="ascii">0.0000000000000000e+00  0.0000000000000000e+00  0.0000000000000000e+00  0.0000000000000000e+00  0.0000000000000000e+00  0.0000000000000000e+00  0.0000000000000000e+00  0.0000000000000000e+00  0.0000000000000000e+00  0.0000000000000000e+00  0.0000000000000000e+00  0.0000000000000000e+00  0.0000000000000000e+00  0.0000000000000000e+00  0.0000000000000000e+00  0.0000000000000000e+00  0.0000000000000000e+00  0.0000000000000000e+00  0.0000000000000000e+00  0.0000000000000000e+00  0.0000000000000000e+00  0.0000000000000000e+00  0.0000000000000000e+00  0.0000000000000000e+00  0.0000000000000000e+00  0.0000000000000000e+00  0.0000000000000000e+00  0.0000000000000000e+00  0.0000000000000000e+00  0.0000000000000000e+00  0.0000000000000000e+00  0.0000000000000000e+00  0.0000000000000000e+00  0.0000000000000000e+00  0.0000000000000000e+00  0.0000000000000000e+00  0.0000000000000000e+00  0.0000000000000000e+00  0.0000000000000000e+00  0.0000000000000000e+00  0.0000000000000000e+00  0.0000000000000000e+00  0.0000000000000000e+00  0.0000000000000000e+00  0.0000000000000000e+00  0.0000000000000000e+00  0.0000000000000000e+00  0.0000000000000000e+00  0.0000000000000000e+00  0.0000000000000000e+00  0.0000000000000000e+00  0.0000000000000000e+00  0.0000000000000000e+00  0.0000000000000000e+00  0.0000000000000000e+00  0.0000000000000000e+00  0.0000000000000000e+00  0.0000000000000000e+00  0.0000000000000000e+00  0.0000000000000000e+00  0.0000000000000000e+00  0.0000000000000000e+00  0.0000000000000000e+00  0.0000000000000000e+00  0.0000000000000000e+00  0.0000000000000000e+00  0.0000000000000000e+00  0.0000000000000000e+00  0.0000000000000000e+00  0.0000000000000000e+00  0.0000000000000000e+00  0.0000000000000000e+00  0.0000000000000000e+00  0.0000000000000000e+00  0.0000000000000000e+00  0.0000000000000000e+00  0.0000000000000000e+00  0.0000000000000000e+00  0.0000000000000000e+00  0.0000000000000000e+00  0.0000000000000000e+00  0.0000000000000000e+00  0.0000000000000000e+00  0.0000000000000000e+00  0.0000000000000000e+00  0.0000000000000000e+00  0.0000000000000000e+00  0.0000000000000000e+00  0.0000000000000000e+00  0.0000000000000000e+00  0.0000000000000000e+00  0.0000000000000000e+00  0.0000000000000000e+00  0.0000000000000000e+00  0.0000000000000000e+00  0.0000000000000000e+00  0.0000000000000000e+00  0.0000000000000000e+00  0.0000000000000000e+00  0.0000000000000000e+00  0.0000000000000000e+00  0.0000000000000000e+00  0.0000000000000000e+00  0.0000000000000000e+00  0.0000000000000000e+00  0.0000000000000000e+00  0.0000000000000000e+00  0.0000000000000000e+00  0.0000000000000000e+00  0.0000000000000000e+00  0.0000000000000000e+00  0.0000000000000000e+00  0.0000000000000000e+00  0.0000000000000000e+00  0.0000000000000000e+00  0.0000000000000000e+00  0.0000000000000000e+00  0.0000000000000000e+00  0.0000000000000000e+00  0.0000000000000000e+00  0.0000000000000000e+00  0.0000000000000000e+00  0.0000000000000000e+00  0.0000000000000000e+00  0.0000000000000000e+00  0.0000000000000000e+00  0.0000000000000000e+00  0.0000000000000000e+00  0.0000000000000000e+00  0.0000000000000000e+00  0.0000000000000000e+00  0.0000000000000000e+00  0.0000000000000000e+00  0.0000000000000000e+00  0.0000000000000000e+00  0.0000000000000000e+00  0.0000000000000000e+00  0.0000000000000000e+00  0.0000000000000000e+00  0.0000000000000000e+00  0.0000000000000000e+00  0.0000000000000000e+00  0.0000000000000000e+00  0.0000000000000000e+00  0.0000000000000000e+00  0.0000000000000000e+00  0.0000000000000000e+00  0.0000000000000000e+00  0.0000000000000000e+00  0.0000000000000000e+00  0.0000000000000000e+00  0.0000000000000000e+00  0.0000000000000000e+00  0.0000000000000000e+00  0.0000000000000000e+00  0.0000000000000000e+00  0.0000000000000000e+00  0.0000000000000000e+00  0.0000000000000000e+00  0.0000000000000000e+00  0.0000000000000000e+00  0.0000000000000000e+00  0.0000000000000000e+00  0.0000000000000000e+00  0.0000000000000000e+00  0.0000000000000000e+00  0.0000000000000000e+00  0.0000000000000000e+00  0.0000000000000000e+00  0.0000000000000000e+00  0.0000000000000000e+00  0.0000000000000000e+00  0.0000000000000000e+00  0.0000000000000000e+00  0.0000000000000000e+00  0.0000000000000000e+00  0.0000000000000000e+00  0.0000000000000000e+00  0.0000000000000000e+00  0.0000000000000000e+00  0.0000000000000000e+00  0.0000000000000000e+00  0.0000000000000000e+00  0.0000000000000000e+00  0.0000000000000000e+00  0.0000000000000000e+00  0.0000000000000000e+00  0.0000000000000000e+00  0.0000000000000000e+00  0.0000000000000000e+00  0.0000000000000000e+00  0.0000000000000000e+00  0.0000000000000000e+00  0.0000000000000000e+00  0.0000000000000000e+00  0.0000000000000000e+00  0.0000000000000000e+00  0.0000000000000000e+00  0.0000000000000000e+00  0.0000000000000000e+00  0.0000000000000000e+00  0.0000000000000000e+00  0.0000000000000000e+00  0.0000000000000000e+00  0.0000000000000000e+00  0.0000000000000000e+00  0.0000000000000000e+00  0.0000000000000000e+00  0.0000000000000000e+00  0.0000000000000000e+00  0.0000000000000000e+00  0.0000000000000000e+00  0.0000000000000000e+00  0.0000000000000000e+00  0.0000000000000000e+00  0.0000000000000000e+00  0.0000000000000000e+00  0.0000000000000000e+00  0.0000000000000000e+00  0.0000000000000000e+00  0.0000000000000000e+00  0.0000000000000000e+00  0.0000000000000000e+00  0.0000000000000000e+00  0.0000000000000000e+00  0.0000000000000000e+00  0.0000000000000000e+00  0.0000000000000000e+00  0.0000000000000000e+00  0.0000000000000000e+00  0.0000000000000000e+00  0.0000000000000000e+00  0.0000000000000000e+00  0.0000000000000000e+00  0.0000000000000000e+00  0.0000000000000000e+00  0.0000000000000000e+00  0.0000000000000000e+00  0.0000000000000000e+00  0.0000000000000000e+00  0.0000000000000000e+00  0.0000000000000000e+00  0.0000000000000000e+00  0.0000000000000000e+00  0.0000000000000000e+00  0.0000000000000000e+00  0.0000000000000000e+00  0.0000000000000000e+00  0.0000000000000000e+00  0.0000000000000000e+00  0.0000000000000000e+00  0.0000000000000000e+00  0.0000000000000000e+00  0.0000000000000000e+00  0.0000000000000000e+00  0.0000000000000000e+00  0.0000000000000000e+00  0.0000000000000000e+00  0.0000000000000000e+00  0.0000000000000000e+00  0.0000000000000000e+00  0.0000000000000000e+00  0.0000000000000000e+00  0.0000000000000000e+00  0.0000000000000000e+00  0.0000000000000000e+00  0.0000000000000000e+00  0.0000000000000000e+00  0.0000000000000000e+00  0.0000000000000000e+00  0.0000000000000000e+00  0.0000000000000000e+00  0.0000000000000000e+00  0.0000000000000000e+00  0.0000000000000000e+00  0.0000000000000000e+00  0.0000000000000000e+00  0.0000000000000000e+00  0.0000000000000000e+00  0.0000000000000000e+00  0.0000000000000000e+00  0.0000000000000000e+00  0.0000000000000000e+00  0.0000000000000000e+00  0.0000000000000000e+00  0.0000000000000000e+00  0.0000000000000000e+00  0.0000000000000000e+00  0.0000000000000000e+00  0.0000000000000000e+00  0.0000000000000000e+00  0.0000000000000000e+00  0.0000000000000000e+00  0.0000000000000000e+00  0.0000000000000000e+00  0.0000000000000000e+00  0.0000000000000000e+00  0.0000000000000000e+00  0.0000000000000000e+00  0.0000000000000000e+00  0.0000000000000000e+00  0.0000000000000000e+00  0.0000000000000000e+00  0.0000000000000000e+00  0.0000000000000000e+00  0.0000000000000000e+00  0.0000000000000000e+00  0.0000000000000000e+00  0.0000000000000000e+00  0.0000000000000000e+00  0.0000000000000000e+00  0.0000000000000000e+00  0.0000000000000000e+00  0.0000000000000000e+00  1.6847904161041458e+182  -2.8579309158040455e+178  1.0278231094451011e+178  1.6097359431286668e+181  3.3640222363507667e+177  3.3960752520649031e+180  -1.0481820687164364e+176  -3.9383814325243865e+174  9.6925957937544356e+175  9.9402948753061635e+173  2.5022757233244716e+175  -1.1945901980941341e+183  1.9447031993323931e+176  2.1055521475009958e+173  8.6643535705637402e+180  9.5546961614268572e+181  1.0408246269039777e+174  -8.6739137793190849e+173  4.2441741150463386e+171  -3.5218989418543801e+174  -1.6865753928915340e+171  4.1169899187890358e+172  2.4243937025770862e+171  1.8395244117632137e+180  4.5324512397219617e+183  7.0202414950036657e+179  9.7953903554373136e+173  2.1698900220554782e+172  -7.1555289868277755e+173  -1.1965370372332064e+180  -2.7432590694702136e+170  -3.1014362310663867e+183  1.9873478004244360e+184  3.9463997645803378e+183  1.4231675894914101e+172  -5.4388470627930021e+170  -1.1960477220481217e+170  -9.7512233933234922e+170  1.2315174143932252e+171  -6.2568199563314775e+178  7.6442015447718266e+179  -3.1480927866766348e+174  5.9363294603570278e+177  7.1485998076441866e+183  1.3599533520344052e+170  -6.5153650358387602e+169  2.5467629013398370e+170  1.0361092476482889e+170  -1.4409259105452786e+177  1.6252855752480180e+176  -1.2784153556045546e+177  -2.1504194820902334e+175  -1.5449249827522521e+178  6.9678505054081274e+180  1.1242390179701159e+174  1.0339347477946970e+181  7.0023318123719019e+170  4.5349044254323409e+171  -1.0677912330519235e+181  9.1219226866200411e+170  2.7697740346821720e+171  6.1681933024948491e+173  -2.1408741660699622e+168  1.1016732428159996e+169  -2.7128396079522030e+180  -3.0162375493141329e+181  -6.3697500235739810e+183  -1.4040532596719068e+179  -2.0457011661498529e+183  -3.3981917588724321e+179  -7.0385173309104279e+182  6.5596350858647003e+176  3.7283548254684850e+178  -1.9847110652589729e+176  -1.1496324566417397e+177  -1.9876327036421979e+179  3.3216032874083871e+170  5.7681920520376948e+180  1.3508723589347938e+182  5.8251893983560537e+173  -7.1972575687003051e+170  1.8269852260107108e+178  -7.2986023686902822e+170  1.2560386875443868e+168  6.1360384320637483e+168  2.2569005027670065e+184  4.7835520961029417e+170  3.4431328094989881e+169  2.0793071854711667e+168  5.0105135697392960e+180  -1.0894038725565374e+174  -8.2214227464284852e+169  1.6629255915370515e+176  -3.0745246346384240e+167  -9.7154444805118662e+174  -2.5065671065034847e+185  -3.1572822015168444e+169  2.1870838420633834e+169  6.7575302977011295e+173  1.4607656453088014e+172  -1.1818873694534770e+175  -1.0751942916235121e+175  -2.6975963591376804e+169  -2.0284531190516785e+180  8.7527404838182062e+177  2.8516434248176480e+176  -4.1665109403912684e+180  -3.3600877859518672e+174  5.2841879338175600e+174  -3.6345800913060635e+169  -1.4458662693385340e+180  1.7132047906378345e+172  2.7055697234777502e+168  1.9200541004432517e+177  -2.6067602015833390e+178  3.5843334384389353e+171  -2.8885639398998034e+169  -3.2468408070392309e+168  4.2967813842406827e+167  -4.8636264052441171e+181  -1.3682700635375662e+180  -4.8219005370442224e+172  -6.8835810353214206e+184  -1.8433324089185866e+169  -2.1193381407107410e+175  -9.3721091694372055e+174  -6.6876843632597667e+168  5.3690330984195454e+168  -2.8135748575811316e+173  2.7951719724187658e+175  -2.4293341877444698e+174  -5.6945213709408763e+173  1.6870466906086746e+177  3.0456333723035980e+179  3.9117061826369642e+174  2.9784400112948138e+172  -3.8744390731247354e+169  -2.2138231128334226e+187  -7.6341050899245577e+180  -7.1481248525493895e+179  -1.5412500651046861e+182  4.8340690110176269e+186  6.2700933691084530e+171  7.2787099317721130e+183  7.3218272616750620e+176  1.4542404625367145e+172  4.1215265606078095e+171  -2.2198721970539029e+178  -9.4590929046269881e+182  4.5555800622566998e+172  -1.7241669973278344e+168  1.2828103626272587e+179  -1.3725529992370911e+184  5.3551596217656519e+169  6.5584050053579951e+171  -2.1059484552040645e+168  -1.2562403907099795e+167  -7.4884595957049601e+172  2.3163008915030803e+168  -4.7192619287474031e+166  2.7132895553376854e+167  -5.8201188108503877e+171  5.7685756764019530e+176  -2.7370899271302273e+169  -7.2466955138483206e+172  -1.2091506748847778e+179  -3.4441484264595288e+174  1.3585400330237949e+168  -6.6976035133156846e+167  1.7652656656083566e+169  1.5411615400456648e+177  -6.8700196341353181e+179  -2.3673538616375683e+171  -1.7803621211248727e+182  1.8357925038139279e+167  -8.9967519454615566e+176  -2.3154758653683548e+168  -5.8325529581473249e+172  -1.3651399974534338e+167  3.7314642580985948e+176  7.0377721483795197e+171  8.3257198783302552e+179  6.2073010142137354e+174  4.7868946950259010e+182  2.4221801240866692e+167  -1.2458047948835662e+177  6.6434067640167493e+175  6.4279164146337318e+179  -2.2988236541807221e+168  4.8229306068670904e+170  9.9453915126532290e+166  -1.0313435542235512e+184  6.6834091725644708e+167  -8.1931302947858385e+170  3.5574453954005912e+181  2.0500724492104924e+183  -7.2079334480531467e+172  -9.5423558224254969e+172  -2.6537808616005040e+179  -2.7124075666920879e+175  -1.4832855598971274e+177  5.4200521333427502e+175  7.5080816054197912e+177  3.5116310801324229e+173  -2.3701822996950433e+175  -3.7995660847642010e+171  1.9849855976363807e+171  -2.6187701773982176e+181  4.7816082307984690e+170  9.3314578745074091e+171  1.1224034628197173e+172  3.8591098066032931e+180  -9.9307320876276250e+179  -1.5434621133453607e+172  -2.7720106087652182e+166  -1.3770573599073912e+174  4.8417034632035312e+181  -6.6364381779804204e+168  -6.6251773003893018e+174  -7.9834337461367742e+173  2.3456260767024683e+170  -1.6805121582651963e+176  -5.6878878500396855e+180  -1.3159491206676009e+175  8.5024690309963239e+175  4.1709930983362371e+168  -2.4631501294614014e+172  -1.8669440118428909e+168  1.0333645159736660e+173  -1.1928943865036093e+167  6.8524072951861842e+168  -8.1313285700126125e+168  -7.7877480691936646e+168  -2.6409621312554437e+171  3.9129945853718167e+169  -1.8625336909136089e+178  -2.9241283466368719e+175  -1.0687623673373419e+171  -1.8071580987067047e+171  1.1445954738920185e+181  7.4286244014430964e+179  1.1582362562236483e+176  6.2896356479939647e+176  1.3149773647889388e+168  7.4090689671996271e+179  -2.1499728210804060e+172  -3.8575198843849948e+168  -1.6872875180661656e+167  1.6119816497761782e+181  -1.6794375537839475e+178  -3.9267728481672146e+177  5.1387272074725997e+176  1.4646392018780324e+184  1.3315614262385275e+182  1.1925166732396816e+170  -8.4851293161771201e+181  5.0429678863905043e+174  -5.6893837955478181e+177  8.2995876031213217e+168  2.0650426480070517e+168  9.8389842551553279e+166  -3.4616542448316897e+174  -9.7861742886109477e+171  4.3104151049219924e+179  -4.6092303243796762e+180  1.1847969769326184e+182  5.1317986294723884e+170  1.5812644439578994e+169  1.4687648539618281e+167  -3.1426129530452544e+176  -5.7105936898921500e+166  -6.3630133571477503e+182  5.4449107690949983e+180  -8.2468765861520232e+172  1.0720839517720820e+170  6.8634505870333739e+172  6.0308098259597063e+184  2.8992851539390407e+180  1.2349219385070544e+180  -9.2547862523416824e+178  -6.0244969500613817e+179  -5.2436641625927010e+181  -2.2056946292242151e+182  7.9325499029615970e+177  -2.5269424062785645e+175  1.1853531755788544e+172  2.3507822788873027e+185  -7.5454008433249380e+168  5.7768523412990978e+171  3.6938648437923202e+181  6.5035405875239003e+181  -1.0358385428364921e+181  1.9227984325851434e+175  -9.5839369987237554e+175  5.3244253265601460e+185  3.2918671270576124e+167  4.8171853251954498e+181  -1.9290135880294991e+168  -7.1563846585247369e+166  5.2729625826023008e+167  -4.0123115403224988e+179  1.0048054816628745e+180  7.5153007969321267e+183  1.8478769523306369e+184  1.2831107233655443e+177  2.2726459235769238e+173  9.2601274323103683e+173  -3.1438546131963968e+177  -1.1564676701044469e+178  5.6386989928278452e+174  1.3883963808232888e+179  -1.1102197502230857e+176  -2.2932183570287801e+181  -6.6836231582571142e+170  1.3127266052547930e+181  -1.1239574554630352e+180  -2.2515516911618355e+178  1.1599642474489769e+172  -1.2037211043073874e+172  -9.1614219661529076e+168  3.7036004875987372e+170  -1.1595419054022527e+171  -7.7455920658734608e+168  -5.0010672726538206e+182  -8.6144954929286320e+167  1.0231684156793977e+168  2.9568081264530943e+169  7.4512048966875123e+179  -6.9430711108553826e+177  -1.6087653104113593e+181  1.1163085353356313e+168  7.7908844954950851e+172  -1.7647461691778916e+175  -6.7324831923419717e+179  2.4484067598938955e+180  3.2707873135514785e+173  3.6464153854962164e+179  -7.2856094478790577e+178  1.9854454131318171e+186  -4.0556283398010666e+173  1.2384293153209601e+172  -2.0514751036599362e+178  -1.0204985807521457e+169  -3.6013916170105245e+169  1.1303549947650843e+176  -1.8515600182937655e+167  -1.0368272802526733e+172  -1.2573645990913016e+174  2.4386472838438076e+165  -4.3672347035335679e+173  3.9042653823819402e+174  1.3177548907894899e+168  1.0819337367618190e+171  -2.6899455842548653e+167  -3.6202538152326096e+169  4.0508522149104995e+171  1.9464782867131484e+176  2.6006772426323272e+183  -1.2100596923286105e+169  -2.5164685522276877e+181  3.8296193187724101e+183  1.2426582995481612e+171  -6.0875372095804059e+167  5.4047538765688211e+176  8.6413726739982455e+169  8.5496035512417935e+184  -3.6534053088124654e+170  -2.4408268772620099e+172  -8.7271152436276662e+180  -3.1646122192491025e+169  -3.1296603578542189e+163  6.1098952734702025e+167  2.7729851348690516e+172  -2.9433520959140524e+179  -2.8044545286650510e+178  2.0172470879178337e+174  1.0883321703554999e+172  -7.9146686546912236e+183  2.8779427513648360e+175  -1.2830478290579895e+168  -7.4215486998236109e+177  3.2814749959179019e+167  2.0555033930343224e+170  -3.4093095941521883e+178  3.0688742866753180e+167  1.0462349211039187e+186  3.1888854575574378e+166  4.1761026997348143e+170  7.3909513584243366e+164  2.6817621051339103e+179  -3.3354362819199715e+175  -1.4153226184152346e+173  -1.3952100126192908e+177  2.2209292351306132e+166  1.0462075190264649e+171  1.8855480373608650e+180  -1.8417838443077130e+170  -1.3220252603775456e+178  -5.1684671201118325e+173  -5.3126301448972150e+166  7.8985840160319760e+163  1.6991442366513147e+179  4.1477395563706993e+168  -1.1706487507714613e+180  4.2256983998944844e+172  2.8221092515507778e+181  -8.7223513345180124e+174  -9.1431634275364699e+167  3.5586533133689531e+170  5.8820124873100810e+170  2.1552900564174255e+170  2.1454484688501280e+170  5.6361526418435848e+181  -1.3748197200605994e+183  1.2069778378584429e+186  5.3782525360003695e+181  -9.4698320954990003e+170  2.3302581506575788e+184  -2.1620849768459809e+181  1.1069131499042279e+170  -8.7427899325441016e+166  -8.8464002625637845e+166  -2.2307692890251880e+175  2.0066924342519429e+174  -1.4999668994764387e+173  -3.4399755130085206e+181  -4.1155485362250772e+173  2.7824091422583703e+166  3.7852366828544985e+166  3.4827783613286303e+168  6.3483179268499173e+175  -2.9746063800160218e+170  1.7188681002336304e+174  2.2627223793064235e+169  3.3390258493008134e+169  -3.8137295241183716e+170  1.3636775619145890e+176  2.2381393633727166e+170  -6.3709956888146809e+177  -8.4741719863332492e+177  3.3855762398567675e+178  -1.0309097728767947e+176  -4.5864081090590982e+177  4.7817907493649612e+178  8.0638850167486677e+169  2.4837218467535575e+182  3.2603647826820632e+171  -1.6336201923997868e+184  8.4101163794126224e+174  1.8855699978006294e+180  2.1617119056722566e+178  1.2063491990558998e+186  8.7537452794257770e+170  1.0544893211581466e+168  -5.0905139192139100e+170  1.3152367770226853e+181  3.2494910679479490e+173  -3.8068272389979338e+178  -9.3939634043031306e+178  3.7200508917589120e+169  -6.6419867232868791e+174  -5.1914900689833762e+167  -1.6362178289606119e+185  -1.8091603060226574e+185  8.7877502216471563e+182  8.1481640507439999e+172  2.2813745564305742e+170  4.6399807836976914e+170  1.4632285708808845e+173  1.1681230722503982e+176  -3.1357758227946027e+177  1.3111284589981363e+170  -2.2014200811798943e+179  9.4715545687225958e+175  2.0445722553138605e+172  -6.3781642916476927e+184  -2.9255468545291346e+173  -2.3685883340701623e+178  -6.8526412022820095e+174  -4.7345588689348972e+176  -1.4616880218167763e+174  2.9162763998561989e+172  3.5980677116678898e+165  8.3227292471575173e+170  1.5078005288451971e+167  2.6590252