<?xml version="1.0"?>
<VTKFile type="UnstructuredGrid"  version="0.1"  >
<UnstructuredGrid>
<Piece  NumberOfPoints="20054" NumberOfCells="39478">
<Points>
<DataArray  type="Float64"  NumberOfComponents="3"  format="ascii">1 0 0  0.9997998037428526 0.02000880895389431 0  0.9991992951284931 0.04000960653046352 0  0.9981987145960756 0.05999438456007805 0  0.9967984627705549 0.07995514128721501 0  0.9949991003022806 0.09988388457430118 0  0.9928013476425149 0.1197726351017051 0  0.9902060847549715 0.139613429562597 0  0.987214350763483 0.1593983238513969 0  0.9838273435359444 0.1791193962445356 0  0.9800464192046954 0.198768750572253 0  0.9758730916235354 0.2183385193801655 0  0.9713090317615876 0.237820867079336 0  0.9663560670342555 0.2572079930835849 0  0.9610161805715396 0.2764921349327862 0  0.9552915104240066 0.2956655714008991 0  0.9491843487067304 0.3147206255874884 0  0.9426971406815462 0.3336496679914983 0  0.9358324837779861 0.3524451195660473 0  0.9285931265532873 0.3710994547530225 0  0.9209819675918909 0.3896052044962556 0  0.9130020543448703 0.4079549592320781 0  0.9046565819097542 0.4261413718560547 0  0.8959488917512338 0.4441571606647087 0  0.8868824703632656 0.4619951122710622 0  0.8774609478731046 0.4796480844928215 0  0.8676880965878291 0.4971090092120542 0  0.8575678294839372 0.5143708952052096 0  0.8471041986406199 0.5314268309423539 0  0.8363013936173391 0.5482699873544935 0  0.8251637397763597 0.5648936205678837 0  0.8136956965509062 0.5812910746042258 0  0.8019018556596399 0.5974557840456699 0  0.7897869392681683 0.6133812766635599 0  0.777355798098326 0.6290611760098652 0  0.7646134094859813 0.6444892039702628 0  0.7515648753881492 0.6596591832778468 0  0.7382154203402046 0.6745650399864606 0  0.7245703893640189 0.6892008059026586 0  0.7106352458278521 0.7035606209753273 0  0.6964155692588616 0.7176387356420051 0  0.6819170531091018 0.7314295131309636 0  0.6671455024759069 0.7449274317181303 0  0.6521068317775753 0.7581270869379442 0  0.6368070623852795 0.7710231937472638 0  0.6212523202121545 0.7836105886414595 0  0.6054488332605282 0.795884231721841 0  0.5894029291282759 0.8078392087135958 0  0.5731210324752972 0.8194707329334278 0  0.5566096624511305 0.8307741472061095 0  0.5398754300847343 0.8417449257291802 0  0.5229250356374803 0.8523786758850435 0  0.5057652659204196 0.8626711399997378 0  0.4884029915768944 0.8726181970476778 0  0.4708451643315825 0.8822158643016828 0  0.45309881420708 0.8914602989276292 0  0.4351710467091336 0.9003477995230937 0  0.4170690399816468 0.9088748075993677 0  0.398800041932607 0.9170379090062476 0  0.3803713673320772 0.9248338352990368 0  0.3617903948834157 0.9322594650472057 0  0.3430645642688987 0.9393118250841893 0  0.3242013731709288 0.9459880916978206 0  0.3052083742700172 0.952285591760924 0  0.2860931722207478 0.9582018038016155 0  0.2668634206069304 0.963734359012881 0  0.2475268188771628 0.9688810422010291 0  0.2280911092620296 0.9736397926726377 0  0.2085640736741707 0.9780087050596407 0  0.1889535305924618 0.9819860300822225 0  0.1692673319315541 0.9855701752492174 0  0.1495133598980264 0.9887597054957302 0  0.1296995238344084 0.9915533437577263 0  0.1098337570523395 0.9939499714833577 0  0.08992401365612977 0.9959486290808237 0  0.06997826535799723 0.9975485163025836 0  0.05000449828625179 0.9987489925657699 0  0.03001070978771124 0.9995495772086734 0  0.01000490522562346 0.9999499496831961 0  -0.01000490522562333 0.9999499496831961 0  -0.03001070978771133 0.9995495772086734 0  -0.05000449828625144 0.9987489925657699 0  -0.06997826535799688 0.9975485163025836 0  -0.08992401365612987 0.9959486290808237 0  -0.1098337570523394 0.9939499714833577 0  -0.1296995238344082 0.9915533437577263 0  -0.1495133598980262 0.9887597054957303 0  -0.1692673319315537 0.9855701752492174 0  -0.1889535305924614 0.9819860300822226 0  -0.2085640736741705 0.9780087050596407 0  -0.2280911092620295 0.9736397926726377 0  -0.2475268188771627 0.9688810422010291 0  -0.2668634206069302 0.9637343590128811 0  -0.2860931722207475 0.9582018038016156 0  -0.3052083742700173 0.9522855917609239 0  -0.3242013731709289 0.9459880916978205 0  -0.3430645642688986 0.9393118250841894 0  -0.3617903948834154 0.9322594650472058 0  -0.380371367332077 0.924833835299037 0  -0.3988000419326071 0.9170379090062476 0  -0.4170690399816465 0.9088748075993678 0  -0.4351710467091335 0.9003477995230939 0  -0.4530988142070799 0.8914602989276292 0  -0.4708451643315824 0.8822158643016829 0  -0.4884029915768945 0.8726181970476778 0  -0.5057652659204197 0.8626711399997378 0  -0.5229250356374801 0.8523786758850437 0  -0.5398754300847342 0.8417449257291804 0  -0.5566096624511303 0.8307741472061098 0  -0.5731210324752971 0.8194707329334279 0  -0.589402929128276 0.8078392087135957 0  -0.6054488332605281 0.7958842317218411 0  -0.6212523202121542 0.7836105886414597 0  -0.6368070623852793 0.7710231937472639 0  -0.652106831777575 0.7581270869379444 0  -0.6671455024759069 0.7449274317181304 0  -0.6819170531091018 0.7314295131309636 0  -0.6964155692588616 0.7176387356420052 0  -0.7106352458278521 0.7035606209753273 0  -0.7245703893640187 0.6892008059026588 0  -0.7382154203402043 0.6745650399864608 0  -0.751564875388149 0.6596591832778469 0  -0.7646134094859813 0.6444892039702628 0  -0.7773557980983258 0.6290611760098654 0  -0.7897869392681683 0.6133812766635599 0  -0.8019018556596398 0.59745578404567 0  -0.8136956965509062 0.5812910746042258 0  -0.8251637397763595 0.5648936205678839 0  -0.836301393617339 0.5482699873544935 0  -0.8471041986406197 0.5314268309423542 0  -0.8575678294839372 0.5143708952052097 0  -0.8676880965878292 0.497109009212054 0  -0.8774609478731045 0.4796480844928216 0  -0.8868824703632656 0.4619951122710621 0  -0.8959488917512338 0.4441571606647088 0  -0.904656581909754 0.426141371856055 0  -0.9130020543448703 0.4079549592320783 0  -0.920981967591891 0.3896052044962555 0  -0.9285931265532872 0.3710994547530226 0  -0.9358324837779861 0.3524451195660473 0  -0.9426971406815462 0.3336496679914984 0  -0.9491843487067303 0.3147206255874888 0  -0.9552915104240065 0.2956655714008993 0  -0.9610161805715396 0.2764921349327862 0  -0.9663560670342555 0.2572079930835851 0  -0.9713090317615876 0.2378208670793361 0  -0.9758730916235353 0.2183385193801658 0  -0.9800464192046954 0.198768750572253 0  -0.9838273435359444 0.1791193962445354 0  -0.987214350763483 0.159398323851397 0  -0.9902060847549714 0.1396134295625972 0  -0.9928013476425149 0.1197726351017052 0  -0.9949991003022804 0.09988388457430147 0  -0.9967984627705549 0.07995514128721509 0  -0.9981987145960756 0.05999438456007793 0  -0.9991992951284931 0.04000960653046362 0  -0.9997998037428526 0.02000880895389464 0  -1 1.224646799147353e-16 0  -0.9997998037428526 -0.0200088089538944 0  -0.9991992951284931 -0.04000960653046338 0  -0.9981987145960756 -0.05999438456007812 0  -0.9967984627705549 -0.07995514128721484 0  -0.9949991003022806 -0.09988388457430078 0  -0.9928013476425149 -0.1197726351017049 0  -0.9902060847549715 -0.1396134295625965 0  -0.9872143507634831 -0.1593983238513963 0  -0.9838273435359444 -0.1791193962445356 0  -0.9800464192046953 -0.1987687505722532 0  -0.9758730916235354 -0.2183385193801655 0  -0.9713090317615876 -0.2378208670793363 0  -0.9663560670342556 -0.2572079930835848 0  -0.9610161805715396 -0.276492134932786 0  -0.9552915104240066 -0.2956655714008991 0  -0.9491843487067305 -0.3147206255874881 0  -0.9426971406815464 -0.3336496679914978 0  -0.9358324837779862 -0.3524451195660471 0  -0.9285931265532875 -0.371099454753022 0  -0.9209819675918909 -0.3896052044962557 0  -0.9130020543448704 -0.407954959232078 0  -0.9046565819097541 -0.4261413718560548 0  -0.8959488917512338 -0.4441571606647086 0  -0.8868824703632655 -0.4619951122710623 0  -0.8774609478731046 -0.4796480844928214 0  -0.8676880965878293 -0.4971090092120538 0  -0.8575678294839373 -0.5143708952052095 0  -0.84710419864062 -0.5314268309423537 0  -0.8363013936173395 -0.5482699873544929 0  -0.8251637397763596 -0.5648936205678838 0  -0.8136956965509061 -0.5812910746042259 0  -0.8019018556596399 -0.5974557840456699 0  -0.7897869392681682 -0.61338127666356 0  -0.777355798098326 -0.6290611760098652 0  -0.7646134094859816 -0.6444892039702625 0  -0.7515648753881492 -0.6596591832778468 0  -0.7382154203402048 -0.6745650399864603 0  -0.7245703893640192 -0.6892008059026583 0  -0.7106352458278522 -0.7035606209753272 0  -0.6964155692588621 -0.7176387356420046 0  -0.6819170531091017 -0.7314295131309637 0  -0.667145502475907 -0.7449274317181303 0  -0.6521068317775756 -0.758127086937944 0  -0.6368070623852792 -0.7710231937472641 0  -0.6212523202121544 -0.7836105886414596 0  -0.6054488332605283 -0.795884231721841 0  -0.5894029291282762 -0.8078392087135956 0  -0.5731210324752977 -0.8194707329334274 0  -0.5566096624511304 -0.8307741472061095 0  -0.5398754300847344 -0.8417449257291802 0  -0.5229250356374798 -0.8523786758850437 0  -0.5057652659204195 -0.8626711399997379 0  -0.4884029915768943 -0.872618197047678 0  -0.4708451643315825 -0.8822158643016828 0  -0.4530988142070805 -0.8914602989276289 0  -0.4351710467091333 -0.900347799523094 0  -0.4170690399816467 -0.9088748075993677 0  -0.3988000419326073 -0.9170379090062475 0  -0.3803713673320777 -0.9248338352990366 0  -0.3617903948834162 -0.9322594650472055 0  -0.3430645642688988 -0.9393118250841893 0  -0.3242013731709283 -0.9459880916978207 0  -0.3052083742700169 -0.9522855917609241 0  -0.2860931722207477 -0.9582018038016155 0  -0.2668634206069305 -0.963734359012881 0  -0.2475268188771631 -0.968881042201029 0  -0.2280911092620301 -0.9736397926726376 0  -0.2085640736741706 -0.9780087050596407 0  -0.1889535305924619 -0.9819860300822225 0  -0.1692673319315544 -0.9855701752492173 0  -0.1495133598980269 -0.9887597054957302 0  -0.1296995238344092 -0.9915533437577262 0  -0.1098337570523396 -0.9939499714833577 0  -0.08992401365612945 -0.9959486290808237 0  -0.06997826535799691 -0.9975485163025836 0  -0.05000449828625168 -0.9987489925657699 0  -0.030010709787
[...]
<PointData  Scalars="Displacement"> 
<DataArray  type="Float64"  Name="Displacement"  format="ascii">0.0000000000000000e+00  0.0000000000000000e+00  0.0000000000000000e+00  0.0000000000000000e+00  0.0000000000000000e+00  0.0000000000000000e+00  0.0000000000000000e+00  0.0000000000000000e+00  0.0000000000000000e+00  0.0000000000000000e+00  0.0000000000000000e+00  0.0000000000000000e+00  0.0000000000000000e+00  0.0000000000000000e+00  0.0000000000000000e+00  0.0000000000000000e+00  0.0000000000000000e+00  0.0000000000000000e+00  0.0000000000000000e+00  0.0000000000000000e+00  0.0000000000000000e+00  0.0000000000000000e+00  0.0000000000000000e+00  0.0000000000000000e+00  0.0000000000000000e+00  0.0000000000000000e+00  0.0000000000000000e+00  0.0000000000000000e+00  0.0000000000000000e+00  0.0000000000000000e+00  0.0000000000000000e+00  0.0000000000000000e+00  0.0000000000000000e+00  0.0000000000000000e+00  0.0000000000000000e+00  0.0000000000000000e+00  0.0000000000000000e+00  0.0000000000000000e+00  0.0000000000000000e+00  0.0000000000000000e+00  0.0000000000000000e+00  0.0000000000000000e+00  0.0000000000000000e+00  0.0000000000000000e+00  0.0000000000000000e+00  0.0000000000000000e+00  0.0000000000000000e+00  0.0000000000000000e+00  0.0000000000000000e+00  0.0000000000000000e+00  0.0000000000000000e+00  0.0000000000000000e+00  0.0000000000000000e+00  0.0000000000000000e+00  0.0000000000000000e+00  0.0000000000000000e+00  0.0000000000000000e+00  0.0000000000000000e+00  0.0000000000000000e+00  0.0000000000000000e+00  0.0000000000000000e+00  0.0000000000000000e+00  0.0000000000000000e+00  0.0000000000000000e+00  0.0000000000000000e+00  0.0000000000000000e+00  0.0000000000000000e+00  0.0000000000000000e+00  0.0000000000000000e+00  0.0000000000000000e+00  0.0000000000000000e+00  0.0000000000000000e+00  0.0000000000000000e+00  0.0000000000000000e+00  0.0000000000000000e+00  0.0000000000000000e+00  0.0000000000000000e+00  0.0000000000000000e+00  0.0000000000000000e+00  0.0000000000000000e+00  0.0000000000000000e+00  0.0000000000000000e+00  0.0000000000000000e+00  0.0000000000000000e+00  0.0000000000000000e+00  0.0000000000000000e+00  0.0000000000000000e+00  0.0000000000000000e+00  0.0000000000000000e+00  0.0000000000000000e+00  0.0000000000000000e+00  0.0000000000000000e+00  0.0000000000000000e+00  0.0000000000000000e+00  0.0000000000000000e+00  0.0000000000000000e+00  0.0000000000000000e+00  0.0000000000000000e+00  0.0000000000000000e+00  0.0000000000000000e+00  0.0000000000000000e+00  0.0000000000000000e+00  0.0000000000000000e+00  0.0000000000000000e+00  0.0000000000000000e+00  0.0000000000000000e+00  0.0000000000000000e+00  0.0000000000000000e+00  0.0000000000000000e+00  0.0000000000000000e+00  0.0000000000000000e+00  0.0000000000000000e+00  0.0000000000000000e+00  0.0000000000000000e+00  0.0000000000000000e+00  0.0000000000000000e+00  0.0000000000000000e+00  0.0000000000000000e+00  0.0000000000000000e+00  0.0000000000000000e+00  0.0000000000000000e+00  0.0000000000000000e+00  0.0000000000000000e+00  0.0000000000000000e+00  0.0000000000000000e+00  0.0000000000000000e+00  0.0000000000000000e+00  0.0000000000000000e+00  0.0000000000000000e+00  0.0000000000000000e+00  0.0000000000000000e+00  0.0000000000000000e+00  0.0000000000000000e+00  0.0000000000000000e+00  0.0000000000000000e+00  0.0000000000000000e+00  0.0000000000000000e+00  0.0000000000000000e+00  0.0000000000000000e+00  0.0000000000000000e+00  0.0000000000000000e+00  0.0000000000000000e+00  0.0000000000000000e+00  0.0000000000000000e+00  0.0000000000000000e+00  0.0000000000000000e+00  0.0000000000000000e+00  0.0000000000000000e+00  0.0000000000000000e+00  0.0000000000000000e+00  0.0000000000000000e+00  0.0000000000000000e+00  0.0000000000000000e+00  0.0000000000000000e+00  0.0000000000000000e+00  0.0000000000000000e+00  0.0000000000000000e+00  0.0000000000000000e+00  0.0000000000000000e+00  0.0000000000000000e+00  0.0000000000000000e+00  0.0000000000000000e+00  0.0000000000000000e+00  0.0000000000000000e+00  0.0000000000000000e+00  0.0000000000000000e+00  0.0000000000000000e+00  0.0000000000000000e+00  0.0000000000000000e+00  0.0000000000000000e+00  0.0000000000000000e+00  0.0000000000000000e+00  0.0000000000000000e+00  0.0000000000000000e+00  0.0000000000000000e+00  0.0000000000000000e+00  0.0000000000000000e+00  0.0000000000000000e+00  0.0000000000000000e+00  0.0000000000000000e+00  0.0000000000000000e+00  0.0000000000000000e+00  0.0000000000000000e+00  0.0000000000000000e+00  0.0000000000000000e+00  0.0000000000000000e+00  0.0000000000000000e+00  0.0000000000000000e+00  0.0000000000000000e+00  0.0000000000000000e+00  0.0000000000000000e+00  0.0000000000000000e+00  0.0000000000000000e+00  0.0000000000000000e+00  0.0000000000000000e+00  0.0000000000000000e+00  0.0000000000000000e+00  0.0000000000000000e+00  0.0000000000000000e+00  0.0000000000000000e+00  0.0000000000000000e+00  0.0000000000000000e+00  0.0000000000000000e+00  0.0000000000000000e+00  0.0000000000000000e+00  0.0000000000000000e+00  0.0000000000000000e+00  0.0000000000000000e+00  0.0000000000000000e+00  0.0000000000000000e+00  0.0000000000000000e+00  0.0000000000000000e+00  0.0000000000000000e+00  0.0000000000000000e+00  0.0000000000000000e+00  0.0000000000000000e+00  0.0000000000000000e+00  0.0000000000000000e+00  0.0000000000000000e+00  0.0000000000000000e+00  0.0000000000000000e+00  0.0000000000000000e+00  0.0000000000000000e+00  0.0000000000000000e+00  0.0000000000000000e+00  0.0000000000000000e+00  0.0000000000000000e+00  0.0000000000000000e+00  0.0000000000000000e+00  0.0000000000000000e+00  0.0000000000000000e+00  0.0000000000000000e+00  0.0000000000000000e+00  0.0000000000000000e+00  0.0000000000000000e+00  0.0000000000000000e+00  0.0000000000000000e+00  0.0000000000000000e+00  0.0000000000000000e+00  0.0000000000000000e+00  0.0000000000000000e+00  0.0000000000000000e+00  0.0000000000000000e+00  0.0000000000000000e+00  0.0000000000000000e+00  0.0000000000000000e+00  0.0000000000000000e+00  0.0000000000000000e+00  0.0000000000000000e+00  0.0000000000000000e+00  0.0000000000000000e+00  0.0000000000000000e+00  0.0000000000000000e+00  0.0000000000000000e+00  0.0000000000000000e+00  0.0000000000000000e+00  0.0000000000000000e+00  0.0000000000000000e+00  0.0000000000000000e+00  0.0000000000000000e+00  0.0000000000000000e+00  0.0000000000000000e+00  0.0000000000000000e+00  0.0000000000000000e+00  0.0000000000000000e+00  0.0000000000000000e+00  0.0000000000000000e+00  0.0000000000000000e+00  0.0000000000000000e+00  0.0000000000000000e+00  0.0000000000000000e+00  0.0000000000000000e+00  0.0000000000000000e+00  0.0000000000000000e+00  0.0000000000000000e+00  0.0000000000000000e+00  0.0000000000000000e+00  0.0000000000000000e+00  0.0000000000000000e+00  0.0000000000000000e+00  0.0000000000000000e+00  0.0000000000000000e+00  0.0000000000000000e+00  0.0000000000000000e+00  0.0000000000000000e+00  0.0000000000000000e+00  0.0000000000000000e+00  0.0000000000000000e+00  0.0000000000000000e+00  0.0000000000000000e+00  0.0000000000000000e+00  0.0000000000000000e+00  0.0000000000000000e+00  0.0000000000000000e+00  0.0000000000000000e+00  0.0000000000000000e+00  0.0000000000000000e+00  0.0000000000000000e+00  0.0000000000000000e+00  0.0000000000000000e+00  0.0000000000000000e+00  0.0000000000000000e+00  0.0000000000000000e+00  0.0000000000000000e+00  0.0000000000000000e+00  0.0000000000000000e+00  0.0000000000000000e+00  0.0000000000000000e+00  0.0000000000000000e+00  0.0000000000000000e+00  0.0000000000000000e+00  0.0000000000000000e+00  0.0000000000000000e+00  0.0000000000000000e+00  -4.9433571000999337e+184  -9.3949688883959432e+180  1.3178736144539193e+179  -3.2375777982572147e+183  -4.5851112142860896e+180  -4.4865921145811112e+182  -2.9367610908587256e+177  -1.6534624513035992e+177  9.5126402408038587e+178  3.2065418467340773e+176  2.1885012964177122e+178  -1.5357753353336895e+186  -2.5601735483169688e+178  2.3390645222444210e+175  5.7488504441339466e+183  -4.4641278832113350e+183  9.2291698177679403e+176  4.4153759525800610e+175  1.1266055954317565e+174  5.9761780275957517e+176  -2.8577431616676023e+173  6.7843514514949061e+174  2.6980002042500577e+174  6.0024452533900867e+182  3.9011679188839318e+186  -6.5541954993364753e+183  4.5563380066392112e+176  -1.4429325298891969e+174  2.5842864600268629e+176  -3.2100082377038365e+182  5.3728189364301517e+172  -2.6732971790292000e+186  5.3428393697134032e+186  -5.1791804140441373e+185  1.3045324628448722e+174  -2.4232975843884998e+173  -6.5767050354029672e+172  -9.2127588771746315e+173  -8.5478836988703253e+174  -3.2911930704003752e+181  3.3632112410223362e+182  -4.0633261610738971e+177  5.5855662642516551e+180  3.7917480104228264e+186  4.6650197736970470e+172  -4.2835884219049049e+172  2.0194237868726581e+173  3.9580800389882821e+172  -4.6815625682343002e+179  1.4367940168087955e+179  2.1604178922749402e+179  3.4688619905894808e+177  -1.3377095126050986e+181  6.7347659799221519e+183  5.0623794709330143e+176  1.3919948490448278e+184  3.3473379759782433e+173  -6.4690590382725561e+173  1.4232992890328754e+183  -7.3184633048762154e+174  -3.5748651860344029e+173  -1.0085558258832286e+176  3.7487171647440917e+171  2.5634180503329257e+171  2.2166184173650676e+184  -1.7362636182139353e+184  -2.1536822073545504e+186  -1.5766402344488877e+181  -1.0733203932125608e+186  2.5723026506193841e+183  -3.6882553622769766e+185  -4.2720778063221907e+178  -4.8317699264352194e+180  -1.8966890260067959e+178  1.4881647952526948e+179  -3.9028568790675499e+181  1.3316754246389498e+173  -7.5465199225785715e+182  3.0936699093518563e+184  1.8041783075763568e+176  1.1819504995879541e+173  5.9484428448752208e+180  -1.7509678019215537e+173  4.6234024106885191e+170  -1.3791110500109534e+171  -6.6304078609058356e+186  4.2582007404840364e+173  -6.0508573382635271e+171  2.9755898699318969e+171  -2.6194475667332375e+183  -6.1002588660175730e+176  -2.8107272449353511e+172  -2.0807915463267261e+178  -1.1716313241812059e+171  -4.5044331639353736e+177  -8.4543018382736270e+187  -3.1568195714924112e+171  2.6212895306920495e+171  3.6797427773880122e+176  4.3904936784458588e+174  -4.6124198308823838e+176  -1.0380943904955300e+178  -2.9759283029558350e+172  -6.5874151884612797e+182  2.8426067311873848e+180  1.2322380776607760e+180  -3.5851596072062787e+183  -2.7099409973722581e+177  4.6451172293833478e+177  2.2212673078591749e+172  -1.3855449607814097e+183  -2.0631443644803955e+176  1.7300770507051848e+171  2.0753760542292859e+180  4.2905512275260522e+180  1.3187890902941826e+174  5.2641351561904620e+171  -5.5642809534197530e+171  3.5012142885451525e+170  5.9603056548825433e+183  2.9886733243678387e+182  -4.9074629086785723e+175  -2.3226002582945553e+187  5.6719703377973023e+173  2.7982562960523224e+177  1.1923626188854856e+177  -4.4184887877391194e+171  2.5156974316146550e+171  -1.1231887260824008e+176  -3.6471437374150157e+177  -3.4677925586759105e+174  -1.1870625775272848e+176  6.5644661788838763e+179  2.5917513177653178e+182  -1.3021374322022093e+177  -5.8197808669661859e+174  -3.1832162046522347e+172  -1.9054630477787113e+190  -6.7576540727497864e+183  -6.5397011767145717e+182  -2.4455321077661910e+184  2.5331263601931463e+189  5.5349829665519482e+174  -9.5894821886440312e+185  7.8775489498520381e+178  8.3914197961056213e+174  2.1385849084063836e+174  -4.8398750649526823e+181  -7.1115753846041726e+185  3.1926164543757201e+176  -3.0701934984775920e+170  -1.6957870943581462e+181  1.8019256789081755e+186  4.0095664225293416e+172  7.8195802047118714e+173  1.9010417666832793e+171  -1.4600974370335555e+170  -2.7615352672599447e+175  -5.6860815658563152e+171  1.1645117756968387e+170  3.1103506114071772e+170  -1.3230446023326301e+174  -6.7363461535796417e+178  3.3171706389161096e+171  9.2107826830389648e+174  1.5885098486741879e+181  5.7995796483495742e+176  -8.9941790273623283e+170  -1.8237095287672961e+170  1.1246301098040644e+174  1.0077908985865245e+180  -6.9776482440818098e+183  -1.8588464195513650e+174  -9.2593237754143757e+184  -6.4462438345997827e+170  7.8171142557802103e+179  -1.8899265698658804e+171  -2.8173238106448615e+175  3.0264383062597267e+169  2.3190731838776190e+180  3.5189215019031619e+174  2.7666625613636357e+182  -7.8304212792340141e+177  -3.8658751006270723e+186  9.9456752175427260e+169  -6.8467285154768691e+179  3.7269575981993749e+178  3.6161320301120613e+182  -1.1625369010515678e+171  2.2711961225323824e+173  -4.4317907814731218e+171  -8.9706630780452786e+186  2.0825714913366104e+170  -3.9770215019881460e+173  -4.7039438121899272e+183  1.7658012503495388e+186  -3.6496932873610095e+175  -7.4144445207101179e+175  3.7140663733211108e+181  7.1407932652911096e+177  -1.4338530317134966e+180  -6.4957411319871104e+178  -1.0188376056050612e+180  2.9795959687332452e+174  -2.2698925362585587e+178  -2.6000124763263107e+174  4.8928672175202283e+173  -1.4577763335006484e+184  -3.1900619271852261e+170  2.0042964713274017e+174  3.6297911964151208e+174  8.0841906901337930e+182  -1.3827070338961071e+183  -7.4463207896283486e+174  2.8366000440109410e+169  2.1555881605703651e+176  4.1747041959533816e+184  4.9422201998535580e+172  -2.1533212793452270e+177  9.2795545429668628e+174  7.0807854573444718e+172  3.0607678673085370e+178  -2.9694504304598175e+183  -1.8113441144014095e+178  4.2045369735796932e+178  -6.6924450199611777e+170  -8.5101878279483392e+174  -7.9870125071366008e+170  4.1691893540010275e+175  -4.2749595494650276e+169  7.0303607067564063e+171  -1.1987488912510661e+172  1.4068734819465395e+171  4.7465050731151806e+173  1.3823623612681567e+172  -6.3497283034605477e+180  -8.9111713997805236e+177  2.2435690606599043e+175  -1.1798980418520080e+174  -1.2577469112262998e+183  -1.1237592053219165e+184  6.0754741558311384e+178  5.4716135108255538e+179  -6.7713270171601059e+171  7.1614861569627859e+182  1.9580428669868200e+176  6.1517056917052093e+170  -3.1024621835332494e+169  1.5584062978597459e+184  -1.6223928421357064e+181  -3.7918840421829571e+180  3.3119984028106310e+179  1.2382975074081218e+187  2.5226599543285300e+184  1.0734290073653140e+173  -2.8576344396308780e+184  -8.5244822468220721e+176  6.3131307416997192e+179  4.9372711307468013e+171  1.2340815416630478e+171  2.0135578462464973e+170  -1.9962515050746512e+177  1.3298410137530485e+174  -7.4138269391668888e+181  -2.4238429850947232e+183  -1.5156860863314219e+184  9.0149227029918638e+172  9.2086990243856189e+171  7.6574493661089117e+169  -1.0863638935510910e+179  -2.0511220472345525e+169  -2.1566841998880595e+185  1.9171849838815625e+183  -6.0578370049868404e+175  -5.4680737878108539e+171  2.4795833895948927e+175  -7.8896170083471811e+186  1.6984985384681010e+183  3.9861016546418711e+182  -9.1691441009808373e+181  -3.0561996300505023e+182  -4.4954365772766512e+184  -1.2453820303913363e+185  -1.0304094008349989e+180  -1.1438051571489967e+178  -6.4483373544873421e+174  7.9311964019636283e+187  -5.6672565383911941e+171  1.9861508935666420e+174  1.9361996971739063e+184  -5.0142876812027074e+185  -8.9173032581697648e+183  -1.1048694573058415e+177  -5.9901777091328630e+178  2.7715701583018377e+188  -6.2966122570886988e+169  -6.3326074789562662e+183  -3.5251975508224476e+170  -2.9845995474798952e+169  3.7559001304543403e+170  3.2538736875484989e+183  -2.9750514677841028e+182  3.9381529906253423e+186  9.6834018970898413e+186  -2.1548204097897046e+179  2.3474203033566992e+175  8.4591392950206557e+176  4.1208441384257567e+179  1.5177809172433482e+180  1.3658918406352215e+176  6.4132414040788781e+180  -9.2643753611375429e+177  1.1345555140853971e+184  4.4764460512117084e+173  9.3196866574416948e+183  -1.1805138684682598e+183  2.8230246449952830e+180  1.5214142869643689e+174  4.9815130183058313e+174  -2.7903974680694234e+171  -6.0050388294063099e+173  -3.9689338632978676e+173  3.6223519279682243e+171  -4.2898609555111210e+185  -8.0370222600963611e+170  8.7994291434016576e+170  1.4636823756823792e+172  -9.8235787212149045e+182  -6.9675797338488550e+180  -9.2350864744755728e+183  -2.4621314389523758e+169  2.6624238407144953e+175  -1.4999056945158461e+178  -2.1874424683658412e+182  1.1257977182000052e+183  3.1155817600735137e+176  3.2734078399715612e+182  1.3647202875547975e+181  6.6989685002969740e+188  -1.5122299738888602e+176  2.2586927357448823e+174  2.4033000038726030e+180  1.5906605227501931e+172  -1.9908636635613635e+172  -1.4513775718250637e+178  4.6262806107830899e+169  -8.1216002439697134e+174  1.6519956962939353e+176  -1.7407895338831007e+169  -1.0652636509133981e+176  1.7694464363435970e+177  5.7523960002166894e+170  6.5094027536789031e+173  4.6619500728247281e+169  -2.7662081711294221e+172  5.5137865518032943e+174  1.4862263273791967e+179  -7.6371266198480194e+185  2.1761724616552873e+171  2.6947899977809338e+183  3.1647753328951326e+186  4.5074727029908011e+174  -1.6984630068932318e+170  2.8487433127333625e+179  -7.8410734340863399e+173  4.4805906416568596e+187  -1.1485086664095298e+173  -1.1861040999493351e+175  -2.2981520989607020e+184  -3.5169850641233242e+171  -1.3957779774764252e+168  -3.1367967699794811e+169  3.6748003450377654e+174  -1.9607228982183956e+182  2.2545903160823082e+181  1.2528726186720951e+177  5.4124470498516398e+174  -2.6713185642635421e+186  9.3347270645138961e+177  -2.8043775202665930e+170  1.4606834823966210e+179  7.1978628172950361e+170  1.1064622366139149e+173  -9.9958371253220371e+180  1.0832216971805009e+170  9.0047955024383523e+188  6.2386209880639169e+169  1.7462026865314886e+173  -4.8818159284905520e+169  6.2879065426267233e+181  -2.9884856254454675e+177  1.8483912593759874e+175  7.5861460900140828e+178  2.5826110037660703e+169  1.3669949754790611e+173  1.0302975313094766e+183  1.8074041165230716e+174  -6.1134172956785669e+180  -2.5058040942321959e+176  -4.4648121985857433e+169  -8.0436381798373941e+169  1.4687456602553341e+182  -6.2963879407268497e+170  -3.8040767037558641e+182  2.4880044696779867e+175  -3.7048964270117166e+183  -2.8662635482478122e+177  4.6156387361382857e+170  3.5824540384534063e+173  2.4267039080082313e+173  1.5335292744525923e+173  -7.4372845175026298e+172  1.9103265350777379e+184  -1.1833938183837302e+186  4.0722290499085557e+188  1.7485214856891031e+184  -2.4121785257269339e+173  7.6572002617898442e+186  -8.3816342443614902e+183  8.1071461624291620e+173  -6.5482108546591653e+169  2.4405043963120488e+169  -1.2651321911970023e+178  1.6982268411728960e+177  1.5136149930453822e+175  -3.0430100468870688e+184  -8.1817286048762265e+175  2.2458471513892929e+170  2.3561539303311671e+169  -2.9656746134955973e+170  6.1375152112960192e+178  -1.9556717965976022e+173  -2.2457819936416289e+176  1.4043334742071176e+172  1.8022290330785622e+172  -1.8721950778653419e+173  1.3246944627013246e+179  1.0565806026755719e+173  -2.1362301380689197e+180  -7.3373464959449058e+180  2.9245942424078448e+181  -3.3514455474600336e+178  -1.4735199616048392e+180  2.0417066595802745e+180  5.6700133374071854e+170  -3.2593904318958185e+184  9.3353156790527485e+173  -7.8723814745015376e+186  4.3726907912221265e+177  1.6206656848994195e+183  -2.5799298953811231e+180  -1.5831733342577037e+188  6.2952338804833873e+173  8.6656351114596491e+170  4.4804070554158416e+174  -1.0611814994563842e+185  1.0158102180946074e+176  -1.6418767606503815e+181  -9.1669899044640360e+181  1.7998308546074027e+172  5.5392611036111545e+177  -2.3692117538248938e+169  -1.4061598052063523e+188  -1.5571637812557022e+188  -1.1576208352520196e+185  7.5708091591985531e+175  2.4341381704442958e+173  4.3950834657551535e+173  4.3332229367528333e+175  -1.9565260218464613e+178  3.6353294847173006e+180  3.4405867438391568e+171  -6.2018307821667472e+181  -3.2631681566644054e+178  2.0960997227920213e+175  -2.4046594797260349e+187  1.2528267626483909e+176  -1.9938446692054690e+181  -3.9297696840438113e+177  -4.0496343849664433e+179  -4.6884288675787133e+176  1.6864262576287469e+175  -1.6203343284170376e+170  -9.8385634131201912e+174  -3.5696721945705852e+169 