<?xml version="1.0"?>
<VTKFile type="UnstructuredGrid"  version="0.1"  >
<UnstructuredGrid>
<Piece  NumberOfPoints="20054" NumberOfCells="39478">
<Points>
<DataArray  type="Float64"  NumberOfComponents="3"  format="ascii">1 0 0  0.9997998037428526 0.02000880895389431 0  0.9991992951284931 0.04000960653046352 0  0.9981987145960756 0.05999438456007805 0  0.9967984627705549 0.07995514128721501 0  0.9949991003022806 0.09988388457430118 0  0.9928013476425149 0.1197726351017051 0  0.9902060847549715 0.139613429562597 0  0.987214350763483 0.1593983238513969 0  0.9838273435359444 0.1791193962445356 0  0.9800464192046954 0.198768750572253 0  0.9758730916235354 0.2183385193801655 0  0.9713090317615876 0.237820867079336 0  0.9663560670342555 0.2572079930835849 0  0.9610161805715396 0.2764921349327862 0  0.9552915104240066 0.2956655714008991 0  0.9491843487067304 0.3147206255874884 0  0.9426971406815462 0.3336496679914983 0  0.9358324837779861 0.3524451195660473 0  0.9285931265532873 0.3710994547530225 0  0.9209819675918909 0.3896052044962556 0  0.9130020543448703 0.4079549592320781 0  0.9046565819097542 0.4261413718560547 0  0.8959488917512338 0.4441571606647087 0  0.8868824703632656 0.4619951122710622 0  0.8774609478731046 0.4796480844928215 0  0.8676880965878291 0.4971090092120542 0  0.8575678294839372 0.5143708952052096 0  0.8471041986406199 0.5314268309423539 0  0.8363013936173391 0.5482699873544935 0  0.8251637397763597 0.5648936205678837 0  0.8136956965509062 0.5812910746042258 0  0.8019018556596399 0.5974557840456699 0  0.7897869392681683 0.6133812766635599 0  0.777355798098326 0.6290611760098652 0  0.7646134094859813 0.6444892039702628 0  0.7515648753881492 0.6596591832778468 0  0.7382154203402046 0.6745650399864606 0  0.7245703893640189 0.6892008059026586 0  0.7106352458278521 0.7035606209753273 0  0.6964155692588616 0.7176387356420051 0  0.6819170531091018 0.7314295131309636 0  0.6671455024759069 0.7449274317181303 0  0.6521068317775753 0.7581270869379442 0  0.6368070623852795 0.7710231937472638 0  0.6212523202121545 0.7836105886414595 0  0.6054488332605282 0.795884231721841 0  0.5894029291282759 0.8078392087135958 0  0.5731210324752972 0.8194707329334278 0  0.5566096624511305 0.8307741472061095 0  0.5398754300847343 0.8417449257291802 0  0.5229250356374803 0.8523786758850435 0  0.5057652659204196 0.8626711399997378 0  0.4884029915768944 0.8726181970476778 0  0.4708451643315825 0.8822158643016828 0  0.45309881420708 0.8914602989276292 0  0.4351710467091336 0.9003477995230937 0  0.4170690399816468 0.9088748075993677 0  0.398800041932607 0.9170379090062476 0  0.3803713673320772 0.9248338352990368 0  0.3617903948834157 0.9322594650472057 0  0.3430645642688987 0.9393118250841893 0  0.3242013731709288 0.9459880916978206 0  0.3052083742700172 0.952285591760924 0  0.2860931722207478 0.9582018038016155 0  0.2668634206069304 0.963734359012881 0  0.2475268188771628 0.9688810422010291 0  0.2280911092620296 0.9736397926726377 0  0.2085640736741707 0.9780087050596407 0  0.1889535305924618 0.9819860300822225 0  0.1692673319315541 0.9855701752492174 0  0.1495133598980264 0.9887597054957302 0  0.1296995238344084 0.9915533437577263 0  0.1098337570523395 0.9939499714833577 0  0.08992401365612977 0.9959486290808237 0  0.06997826535799723 0.9975485163025836 0  0.05000449828625179 0.9987489925657699 0  0.03001070978771124 0.9995495772086734 0  0.01000490522562346 0.9999499496831961 0  -0.01000490522562333 0.9999499496831961 0  -0.03001070978771133 0.9995495772086734 0  -0.05000449828625144 0.9987489925657699 0  -0.06997826535799688 0.9975485163025836 0  -0.08992401365612987 0.9959486290808237 0  -0.1098337570523394 0.9939499714833577 0  -0.1296995238344082 0.9915533437577263 0  -0.1495133598980262 0.9887597054957303 0  -0.1692673319315537 0.9855701752492174 0  -0.1889535305924614 0.9819860300822226 0  -0.2085640736741705 0.9780087050596407 0  -0.2280911092620295 0.9736397926726377 0  -0.2475268188771627 0.9688810422010291 0  -0.2668634206069302 0.9637343590128811 0  -0.2860931722207475 0.9582018038016156 0  -0.3052083742700173 0.9522855917609239 0  -0.3242013731709289 0.9459880916978205 0  -0.3430645642688986 0.9393118250841894 0  -0.3617903948834154 0.9322594650472058 0  -0.380371367332077 0.924833835299037 0  -0.3988000419326071 0.9170379090062476 0  -0.4170690399816465 0.9088748075993678 0  -0.4351710467091335 0.9003477995230939 0  -0.4530988142070799 0.8914602989276292 0  -0.4708451643315824 0.8822158643016829 0  -0.4884029915768945 0.8726181970476778 0  -0.5057652659204197 0.8626711399997378 0  -0.5229250356374801 0.8523786758850437 0  -0.5398754300847342 0.8417449257291804 0  -0.5566096624511303 0.8307741472061098 0  -0.5731210324752971 0.8194707329334279 0  -0.589402929128276 0.8078392087135957 0  -0.6054488332605281 0.7958842317218411 0  -0.6212523202121542 0.7836105886414597 0  -0.6368070623852793 0.7710231937472639 0  -0.652106831777575 0.7581270869379444 0  -0.6671455024759069 0.7449274317181304 0  -0.6819170531091018 0.7314295131309636 0  -0.6964155692588616 0.7176387356420052 0  -0.7106352458278521 0.7035606209753273 0  -0.7245703893640187 0.6892008059026588 0  -0.7382154203402043 0.6745650399864608 0  -0.751564875388149 0.6596591832778469 0  -0.7646134094859813 0.6444892039702628 0  -0.7773557980983258 0.6290611760098654 0  -0.7897869392681683 0.6133812766635599 0  -0.8019018556596398 0.59745578404567 0  -0.8136956965509062 0.5812910746042258 0  -0.8251637397763595 0.5648936205678839 0  -0.836301393617339 0.5482699873544935 0  -0.8471041986406197 0.5314268309423542 0  -0.8575678294839372 0.5143708952052097 0  -0.8676880965878292 0.497109009212054 0  -0.8774609478731045 0.4796480844928216 0  -0.8868824703632656 0.4619951122710621 0  -0.8959488917512338 0.4441571606647088 0  -0.904656581909754 0.426141371856055 0  -0.9130020543448703 0.4079549592320783 0  -0.920981967591891 0.3896052044962555 0  -0.9285931265532872 0.3710994547530226 0  -0.9358324837779861 0.3524451195660473 0  -0.9426971406815462 0.3336496679914984 0  -0.9491843487067303 0.3147206255874888 0  -0.9552915104240065 0.2956655714008993 0  -0.9610161805715396 0.2764921349327862 0  -0.9663560670342555 0.2572079930835851 0  -0.9713090317615876 0.2378208670793361 0  -0.9758730916235353 0.2183385193801658 0  -0.9800464192046954 0.198768750572253 0  -0.9838273435359444 0.1791193962445354 0  -0.987214350763483 0.159398323851397 0  -0.9902060847549714 0.1396134295625972 0  -0.9928013476425149 0.1197726351017052 0  -0.9949991003022804 0.09988388457430147 0  -0.9967984627705549 0.07995514128721509 0  -0.9981987145960756 0.05999438456007793 0  -0.9991992951284931 0.04000960653046362 0  -0.9997998037428526 0.02000880895389464 0  -1 1.224646799147353e-16 0  -0.9997998037428526 -0.0200088089538944 0  -0.9991992951284931 -0.04000960653046338 0  -0.9981987145960756 -0.05999438456007812 0  -0.9967984627705549 -0.07995514128721484 0  -0.9949991003022806 -0.09988388457430078 0  -0.9928013476425149 -0.1197726351017049 0  -0.9902060847549715 -0.1396134295625965 0  -0.9872143507634831 -0.1593983238513963 0  -0.9838273435359444 -0.1791193962445356 0  -0.9800464192046953 -0.1987687505722532 0  -0.9758730916235354 -0.2183385193801655 0  -0.9713090317615876 -0.2378208670793363 0  -0.9663560670342556 -0.2572079930835848 0  -0.9610161805715396 -0.276492134932786 0  -0.9552915104240066 -0.2956655714008991 0  -0.9491843487067305 -0.3147206255874881 0  -0.9426971406815464 -0.3336496679914978 0  -0.9358324837779862 -0.3524451195660471 0  -0.9285931265532875 -0.371099454753022 0  -0.9209819675918909 -0.3896052044962557 0  -0.9130020543448704 -0.407954959232078 0  -0.9046565819097541 -0.4261413718560548 0  -0.8959488917512338 -0.4441571606647086 0  -0.8868824703632655 -0.4619951122710623 0  -0.8774609478731046 -0.4796480844928214 0  -0.8676880965878293 -0.4971090092120538 0  -0.8575678294839373 -0.5143708952052095 0  -0.84710419864062 -0.5314268309423537 0  -0.8363013936173395 -0.5482699873544929 0  -0.8251637397763596 -0.5648936205678838 0  -0.8136956965509061 -0.5812910746042259 0  -0.8019018556596399 -0.5974557840456699 0  -0.7897869392681682 -0.61338127666356 0  -0.777355798098326 -0.6290611760098652 0  -0.7646134094859816 -0.6444892039702625 0  -0.7515648753881492 -0.6596591832778468 0  -0.7382154203402048 -0.6745650399864603 0  -0.7245703893640192 -0.6892008059026583 0  -0.7106352458278522 -0.7035606209753272 0  -0.6964155692588621 -0.7176387356420046 0  -0.6819170531091017 -0.7314295131309637 0  -0.667145502475907 -0.7449274317181303 0  -0.6521068317775756 -0.758127086937944 0  -0.6368070623852792 -0.7710231937472641 0  -0.6212523202121544 -0.7836105886414596 0  -0.6054488332605283 -0.795884231721841 0  -0.5894029291282762 -0.8078392087135956 0  -0.5731210324752977 -0.8194707329334274 0  -0.5566096624511304 -0.8307741472061095 0  -0.5398754300847344 -0.8417449257291802 0  -0.5229250356374798 -0.8523786758850437 0  -0.5057652659204195 -0.8626711399997379 0  -0.4884029915768943 -0.872618197047678 0  -0.4708451643315825 -0.8822158643016828 0  -0.4530988142070805 -0.8914602989276289 0  -0.4351710467091333 -0.900347799523094 0  -0.4170690399816467 -0.9088748075993677 0  -0.3988000419326073 -0.9170379090062475 0  -0.3803713673320777 -0.9248338352990366 0  -0.3617903948834162 -0.9322594650472055 0  -0.3430645642688988 -0.9393118250841893 0  -0.3242013731709283 -0.9459880916978207 0  -0.3052083742700169 -0.9522855917609241 0  -0.2860931722207477 -0.9582018038016155 0  -0.2668634206069305 -0.963734359012881 0  -0.2475268188771631 -0.968881042201029 0  -0.2280911092620301 -0.9736397926726376 0  -0.2085640736741706 -0.9780087050596407 0  -0.1889535305924619 -0.9819860300822225 0  -0.1692673319315544 -0.9855701752492173 0  -0.1495133598980269 -0.9887597054957302 0  -0.1296995238344092 -0.9915533437577262 0  -0.1098337570523396 -0.9939499714833577 0  -0.08992401365612945 -0.9959486290808237 0  -0.06997826535799691 -0.9975485163025836 0  -0.05000449828625168 -0.9987489925657699 0  -0.030010709787
[...]
<PointData  Scalars="Displacement"> 
<DataArray  type="Float64"  Name="Displacement"  format="ascii">-6.4377328603199960e-21  -7.1742080767940857e-20  -4.4946263041459945e-20  4.1086545823913754e-20  -1.1413745966625697e-20  -1.0197108082259313e-20  -9.2421321383344200e-21  1.7494726531929890e-21  -2.2615789456481100e-21  -2.7479251243167646e-20  -1.5479989003617218e-20  -1.2412663478860836e-20  1.2209210044931160e-20  1.2102760303809616e-20  1.0985062382531510e-20  6.8433789877546517e-21  3.2364151763496798e-22  2.0112175673378437e-20  3.6172054580224104e-20  -6.6270907173125833e-20  -5.9450076897660178e-20  1.4354594163702291e-19  1.5050606516654107e-19  -6.4627228515085031e-20  -2.8836866797449861e-20  -2.9393481331898031e-20  6.6142480090253728e-20  -1.3691292029006322e-20  8.4748122947701556e-20  -3.1259613827558816e-20  -4.9451301588284353e-22  5.1158705358361075e-20  7.3744403163379468e-21  -1.6864913587443617e-22  -1.3168787286146619e-20  -7.4848955550261268e-21  8.2821039915140375e-21  1.8303854982335076e-21  -8.8542586104334583e-21  -6.5649865772730455e-21  3.4485908367035275e-21  -2.4172205161528642e-20  -1.8223612289363461e-20  1.7041438855369446e-19  6.6865920243405411e-20  1.6675483623098757e-20  1.3652307088622619e-20  1.2469982655917499e-20  3.3861217921208812e-20  6.3396918032623832e-20  1.0138852116010603e-19  3.5385740522213960e-20  7.2487438513611518e-20  -1.4202331464164380e-19  1.9929013983406770e-20  2.6074120988728258e-20  3.5400349096842577e-20  4.5558936986699778e-21  1.3212069684047708e-20  5.2420443937071767e-22  -1.0657741023583159e-21  1.8737259688879689e-21  -1.5408595786660477e-21  -5.3885645312864338e-21  -6.7141940488483155e-21  -5.2878917686906803e-21  5.0325511401675071e-22  5.9265902906411779e-22  -2.0057577919632155e-22  -9.7431772427332556e-23  7.2264148973168835e-23  -6.6652252913882901e-22  4.3965812826204270e-21  -1.7046940660300738e-21  -2.0507174162490678e-21  -1.8710221010947020e-21  3.2168980073986820e-21  9.0460990604510295e-22  1.1818660948951832e-21  -2.9526657848067471e-22  9.0856684750284222e-24  2.4633483513822778e-22  7.4313340831036800e-22  -1.8023737534478054e-22  5.3964493529515388e-21  1.1822271763384584e-20  -1.1473452576554189e-20  1.2388925542270990e-21  1.4408663272914675e-21  1.9152036131075478e-20  -1.0952310502071062e-20  -1.6891262052410586e-20  7.3974281500766230e-22  5.9373076625047199e-22  5.1912552119066642e-21  1.9054923492281727e-22  3.0950372480713673e-22  -1.4727770915989274e-21  -5.6377201488642834e-21  -3.1821165922117757e-21  -3.9771484275977740e-22  4.6799262765153329e-22  2.0098872687327659e-21  3.4001933754642132e-21  -8.8427506304024763e-22  1.0121901181058883e-20  3.2083804129077881e-21  1.2128802807225709e-22  -4.3230363969744569e-22  1.2799138557125033e-21  1.3940123891005627e-21  2.7718280388358964e-22  8.5715209076559377e-22  9.0142029978783730e-23  -2.6520127304691463e-22  -6.8711645698008180e-22  3.8153705795476457e-23  -3.4749740624516241e-22  1.9372458504076138e-22  1.2475417028731993e-22  -1.6632744596232168e-22  1.0523428754675863e-22  -3.8347891337776707e-22  -6.6899633139533121e-22  1.1561360068294674e-22  -3.6291636128379375e-21  -1.9954211734520775e-21  5.9768531902402948e-23  1.9877146042264097e-22  -3.8622058067466141e-21  -1.2952807480530309e-20  -6.0140750273484197e-21  -7.6000630816667835e-22  -2.2190200789346495e-21  -2.5346697300801214e-21  -3.3635613638683470e-21  -1.6465565559048605e-21  6.8649777720519556e-21  7.3919053488745218e-22  -6.5627764554950594e-21  -1.6743162630510890e-21  1.5043106022413432e-20  2.4213584585037899e-20  3.2771893966814192e-21  -4.3783935415295518e-21  2.2104498510355657e-20  7.5903151729985870e-20  -4.0310999313349947e-21  -2.5148136368118051e-21  -1.1089910429263569e-23  3.1705561637487395e-21  -2.0630985668547872e-21  -1.0090291548935421e-20  -6.1442447459951622e-21  8.8099138847089033e-21  1.6507296314589296e-21  3.5116055345132263e-21  -1.2762403964763065e-21  1.2088028216426176e-21  -1.2927206759889544e-21  2.7619379774030398e-22  0.0000000000000000e+00  -3.4948055465236674e-21  -5.7653826426386563e-21  7.6626601608625437e-21  4.3131959589358581e-21  -2.5458650395972818e-20  2.0744827179321036e-21  -6.1973705806662803e-20  1.4359972632835978e-20  -1.8010798251431632e-20  8.7052202187079956e-21  7.4902265350291921e-21  1.0437159913770856e-21  3.7584516893946020e-21  4.6331835148388435e-21  -3.6428621234744410e-21  -1.0778883436742344e-21  2.5851653876177861e-21  4.3453371430774473e-23  -1.0220120663406171e-20  1.7158114659798918e-21  -1.1873754879038160e-21  1.0477460641979525e-21  -1.9432737048067127e-21  -1.7607755414122085e-22  1.7561269896020856e-21  1.5802733327794291e-23  2.4827311231416266e-21  -5.9688451580790387e-23  8.1393531895327637e-21  2.9496429083193705e-20  -3.4916426111697191e-21  -2.1354210607921934e-22  2.7879803682197703e-21  -2.1280141071278486e-22  -3.9993105620988969e-21  1.2846666843322011e-20  7.4339921012756037e-21  1.8922191824691543e-21  -9.2739418293918282e-21  4.8549792698696537e-21  -1.4066263783995030e-21  -1.1720661231396937e-20  7.1916878091367750e-21  1.0358348615152260e-21  8.1679929932263747e-21  2.2778969690229760e-21  -3.3818623536961359e-21  4.8860136209362475e-21  -2.4096011640537038e-21  1.0279613186472888e-20  7.2589187381218163e-22  -7.1475942720931993e-21  -1.0469330843483448e-20  -1.6816513250262307e-20  -2.0676183900418684e-20  1.9132977059411809e-20  -3.1354550711334695e-22  2.0429346715582883e-21  8.4644103858461783e-21  1.6460627233764517e-21  5.7594410693308467e-21  -3.9206889624392985e-21  -3.9784984050337395e-21  1.2542478793173707e-21  2.5537574463634587e-22  1.7719846320338078e-20  4.8973812098928769e-20  -9.3057680139079263e-21  -5.7468551096113426e-21  -6.1193287288013986e-21  5.1861919498714467e-21  9.4579199650131989e-21  2.3027725646394536e-21  -2.2769951647268362e-20  -1.6850308007051532e-20  5.3649820412674836e-21  1.7349831362121426e-20  2.5551882633069333e-20  1.9245302114864158e-20  3.8129543732895278e-21  -3.9382956326534939e-21  7.0291008167900456e-22  -2.6350383927534802e-21  -8.4068356310468948e-22  1.6536356780144279e-21  1.2275465345846302e-22  -1.4551164217767019e-22  3.5294907235816063e-21  6.8113051312150166e-22  5.1528440367549904e-22  2.1103138442567785e-22  -5.9161053408097420e-22  6.1633117751570997e-22  9.5678820393938494e-22  5.5051864260497175e-21  1.5805003070481199e-21  1.8492683309593802e-21  1.5504007212673397e-21  -5.6205204946685551e-22  6.2582156481200877e-23  -2.4516877103210499e-21  -7.2635965612954347e-23  2.3934665858001815e-23  1.0747903887000021e-21  -3.2491637630934045e-22  1.9052456726011977e-21  1.9002217029141342e-21  -5.6824839014061415e-21  1.1629455436467899e-20  1.0297228304164807e-20  -2.2896272113394434e-20  -3.4592251596374407e-21  4.3133180775271485e-21  1.4678294749914055e-22  4.1300523371434316e-22  -2.3663367115747535e-22  -6.1746984946834614e-23  3.3456598677434138e-23  1.7746494515439653e-23  -2.1797181149156006e-22  -7.3487144356154471e-21  -5.8990318648302846e-21  -3.9911612316158097e-20  -3.9018447568213934e-20  3.7293073189866132e-22  1.6136308397686473e-21  -1.4686293642472292e-20  -3.2245889017149376e-20  -3.2106616290056304e-20  -1.0768527747043708e-20  -6.5378329951376371e-22  7.1215903396860451e-22  -3.1780518390208850e-21  6.9983891546038746e-21  3.3827656892208810e-20  -4.5174896821287251e-21  1.3319466547931684e-20  -2.1818229544739480e-20  -1.0036253765899862e-20  -4.6383323251245205e-20  1.3502189143120171e-20  -7.6529011102642511e-21  3.4819039816653593e-21  2.2264883828890949e-21  2.8117951026507736e-20  -8.2935487403599774e-20  5.8145761816846469e-20  4.7419073377310685e-20  4.6757054063385042e-20  4.1131526413307118e-21  -1.1099962488253288e-20  1.7917968863169878e-20  3.8285857395991664e+13  -5.2736077133780727e+06  -4.8327939029901989e+07  -1.0335905065606546e+07  -2.3343331402554087e+07  1.0149327138698978e+07  9.0575843956106924e+04  -4.5796340969517684e+02  -4.4487635280544673e+01  -1.0696973381967361e+00  -1.1357299496211162e+00  -1.3781273126524077e+12  -2.2168983611477061e-01  5.3195619211697992e-02  7.6812382797677094e+13  -1.5562045673523494e+14  1.8878093722158814e-03  -8.8969816487136316e-04  1.2939603272613951e-02  1.1167533195029344e-03  -7.7534665886486295e-04  1.7369834997889636e-03  -2.4772519810303617e-03  -9.5249700720992622e+09  -2.6365840568266922e+10  -2.4630820748678914e+13  -2.4523339027118464e-03  1.1983193838045071e-04  -1.2326681526483955e-04  -3.3930317701347893e+08  1.8383246311288036e-04  2.7365813473731541e+14  -3.4975306949526506e+14  -1.1155708302453272e+08  -2.2024684335016709e-07  6.0397848807822863e-07  1.9062543476099300e-06  2.1959478382252452e-06  -2.6883568830460451e-06  1.2407929176704926e+05  6.9873016640324640e+04  -6.7492344348894752e+04  -7.5517757323411599e+04  -2.6909839486833600e+14  -2.0887127718306042e-06  -6.7431456488507938e-07  7.7924025497992120e-07  3.1997237766838392e-07  6.1664245221071587e+03  -2.5856192611642990e+04  -1.8835860130543608e-01  -3.5938716317598434e+05  -5.4793552360848189e+04  -6.9296609442455098e+06  1.4370647635085646e-07  -6.0480291770132562e+13  3.5749861694019135e-07  1.1934987598326244e-07  -7.8967739485049915e+11  -5.1356077220011383e-08  8.5995327601627920e-08  2.2275001804975485e+00  3.0518993311273640e-07  3.0548550822799028e-07  8.5485544802643398e+12  -1.4270911376591216e+14  1.9982330873587848e+11  1.6305436512748808e+08  -2.0609606057505798e+10  -6.1171727853872984e+13  2.9089190067770874e+12  5.2781044134270905e+03  2.4803672364387990e+02  7.6893988787765102e+02  -1.5634684128330593e+02  -3.1532163463346423e+11  -3.7041627463337050e-09  -4.8657431396717386e+09  -5.7522107552580383e+11  4.0724105690519696e+00  -6.6184016039085383e-09  1.2891402918154430e+09  -6.0834935507324456e-10  -4.1324770808284011e-10  2.6650394935697382e-08  -8.4365516871887912e+14  2.7587395654555478e-09  3.5569546624275868e-09  -3.5813624846591668e-09  -1.0238507225366064e+11  7.4751158552805641e-01  9.0286977160248967e-10  3.3793224970118217e+01  -1.3170704506505273e-09  -1.3886409878867847e+00  -3.0433484203227306e+14  -1.7208903264451512e-08  -4.2379404558932513e-09  6.6531675423679904e-01  3.0214209278363807e-02  -4.0515568396799626e+00  1.2296414037972232e+00  -7.9905695713929577e-10  -1.0716968781027892e+09  3.1680905209573155e+05  -7.7307537589960080e+05  -1.3418529937975554e+09  -8.9572525300917416e-02  -4.3355333457890988e-01  5.6235537945377331e-09  3.4863974990322471e+08  -1.8100911721579512e-09  2.9328973491577193e-09  -2.6715201665195691e+03  3.5949484998697230e+03  -3.0076412278651665e-01  6.8356382917484925e-09  -2.2686269827737753e-09  7.3875717573258826e-09  -4.8978046447847031e+14  -5.1616637533557057e+08  -1.2428049008647509e-04  2.7131394624708719e+13  -3.0601833049843814e-09  4.0839202934484391e-02  6.3495164463383569e+00  1.6666975317416276e-10  -3.7318460331353867e-10  -3.3730894158538402e-04  8.2014540219985423e-03  1.6302825768828743e+01  -1.3678484967651316e-02  -8.4862812682226615e+02  3.5019934538390212e+07  4.3992189677275173e+03  8.8876045591122332e-02  1.0847271704026546e-09  2.5410940003416150e+14  -2.1611737035403705e+11  3.5393613159862875e+13  7.7337484800386891e+13  -1.7370900530704234e+14  -1.6534204093639719e-05  1.7732598345284491e+09  -2.3719766711019878e+02  2.3277201786900674e-04  -2.2148792936021777e-04  3.6189998819707922e+13  -2.1347251707281995e+15  3.9453846515911842e+01  9.3567499887782680e-10  6.3761161597746504e+03  -1.3903998859155939e+11  1.6930953809820293e-04  3.7098619743805828e-03  -1.3558274363637395e-06  -1.1678355469406224e-10  -4.7326868980042736e-05  9.2767258079450603e-10  -5.6968404841801070e-11  1.1652947197708140e-10  2.4496781837035956e-04  -8.8993874275649798e+00  3.9485161980068837e-10  -2.9252405309478068e-06  -5.2318489237490222e+06  3.1117654891218234e-05  -4.9201803128335566e-10  3.0104441774328520e-10  -2.3943227153695796e-06  4.6777513641137784e+03  6.0141519601077172e+13  -3.9398354925292462e-05  3.9799703143162514e+10  -1.4746995648479573e-10  -4.7997637754318583e+08  2.1319190330844203e-11  -1.0169389927566417e-02  -1.1939078013332045e-11  5.4157981135809481e+07  -4.5021443094283468e-05  -2.9763280224026958e+06  1.2387853233515100e+03  -1.4517446705131792e+15  -2.8630928293708852e-10  1.4518539630477809e+05  8.8425946996478881e+00  -7.6723255255577132e+07  -1.0271541030735838e-10  1.3750702472096035e-06  -2.8486811334307715e-10  4.4477011797031275e+14  8.5584975126009828e-12  1.1078309589625238e-10  -9.0910271789976279e+05  -1.8288408730561111e+11  -3.7262308551498672e-03  5.2378729829707632e-06  -7.3121782309092460e+06  9.0868568984801321e+00  -4.3991955310537094e+01  -2.2153050976424263e+04  -1.5283503244290380e+07  8.5568955930189077e+00  1.6273294024201385e+02  -8.3804192423513141e-06  -6.8351704972983795e-05  -5.0899874840480273e+13  7.0841980065661177e-09  -4.6110586634379087e-06  1.0508666226059636e-02  1.5980510443669156e+14  9.8663899095301938e+13  -2.9034616122627869e-12  3.1984199325358062e-11  3.2206800852780884e-05  -8.2818305251587167e+07  -4.0747511810802390e-10  2.0266566523182309e+01  3.0278718495074919e+01  -5.1747025478011322e-08  -3.0857554844150509e-01  -1.2576967106411705e+10  -5.4049339410166863e+02  -4.2583606354924564e-01  -2.4590525825258148e-10  -1.7585835683026160e-01  -2.1757005706689090e-12  -1.4284672097564474e+01  1.0594039401578359e-10  -8.4776006327845988e-10  -8.9408598982545148e-11  5.8203670795554773e-11  1.9827588138172880e-06  5.0223150132278688e-12  1.3789678735929021e+08  2.9975942929827761e+03  3.0778072474637346e-06  9.1266437321132763e-07  -2.5823066264391359e+14  8.3121730619127236e+12  1.6442674214708993e+02  7.9716509120805483e+01  -1.6771204175361100e-10  7.0548255283038681e+06  -5.4695408827661768e-11  -1.5838505645418565e-11  8.9595588159621772e-11  -1.8506404634109237e+09  -7.8638150570870280e+07  1.3733173461684384e+05  -7.0627673652177575e+04  9.7411888833795562e+13  -9.4764264356964531e+13  1.5871374659255068e-06  -1.6537750367210575e+10  3.8502374337166204e-04  -4.7855352948425396e+04  -7.0451770668843049e-10  3.7580919756966719e-11  -5.1704576788833018e-10  2.8537436578263365e-03  -2.9760853691570776e-05  -4.9782705386127200e+03  -1.3711772887788761e+08  3.3422580377079854e+09  5.1159192487342791e-07  1.1138579924143532e-08  7.6487915267197379e-10  4.0168527083499932e+04  1.5690072364447683e-11  5.2981791911754913e+10  -2.0414610437514850e+08  1.7273685008800277e-03  -4.3913039721617757e-05  7.7487473062212750e-02  -2.6044311720571490e+11  -2.7173070856443037e+12  2.5622160983329895e+10  -3.9522237671898322e+11  1.4888203933255603e+12  4.8625301682464391e+13  -1.2291943879894740e+15  -1.5138894834927543e+01  2.6809572587326425e-01  3.8108589377075237e-04  -3.8994234594703000e+13  1.9508951396465908e-11  -1.1557498011154225e-05  -3.8336741931917310e+09  -5.3287002486500600e+14  1.6212465591641229e+08  2.0586466463348099e+01  -6.2782584373461097e+04  -1.0942361026349252e+14  -2.6002901354377237e-12  1.9369340051324310e+05  -7.8758943882495536e-11  -8.9996744767447581e-12  -7.6434941431366189e-11  2.0591655507227535e+13  -7.1588991658755469e+13  -9.6086329711474082e+12  8.1989363554562328e+13  -2.0437805286186117e-01  1.2743617576495781e+02  -1.7852568550758095e-02  2.9464484147054304e+03  3.2206825649626722e+01  8.4544981573746753e+01  -1.1348879441812811e+06  5.1494735051122063e+01  -3.5060081116014043e+12  5.6076757819016297e-03  -1.5436556863868878e+14  -1.4288995998221105e+13  -1.0939429804949987e+04  -1.0461302989837957e-02  -1.4206183685607329e-01  -1.2352968413693911e-11  -4.5385314039702683e-05  -3.5783766153625287e-04  1.4731153752296472e-11  9.0924654870407507e+11  4.4866604348300246e-12  2.8846255290119970e-11  2.0755247624594651e-07  -1.0103387511096344e+10  -7.3531779424092667e+10  -5.0292329531359219e+13  2.1364806559561612e-11  -1.7767523150126481e-02  6.9311645338304633e+00  2.2961920770969827e+07  -5.7774244189927338e+10  -1.6771885530153026e-03  -9.4147047853951082e+06  1.1189069599532119e+12  -2.4161196703881531e+14  -5.8075355299282938e-01  6.9222436237454228e-06  -1.5899747540442448e+06  -3.1125479831577047e-07  -2.8892524195651680e-08  4.0489604577032839e-01  3.1764062363273925e-11  1.1800122291667299e-06  9.4983463230668418e-05  8.3378206568292404e-13  -2.3518235966011161e+00  3.3569640560296798e-01  1.2423415750740493e-11  3.7289712729012850e-07  -4.4696687094605130e-11  -3.6128655129671120e-07  8.2613001319992309e-08  -1.7931821789312316e+05  -7.8343271372718844e+13  2.0302651281400167e-06  -4.2387352979139234e+13  4.5355276950606914e+12  2.1970997583275402e-04  -2.8644693865498347e-12  1.0175266198651885e+03  -3.2049391054720340e-08  -2.1860584713903674e+12  2.2282599304748259e-07  -6.3179961821674055e-02  1.3437366515870256e+14  8.1294428228673856e-06  -4.6395395778750670e-12  -1.7765677802264802e-10  1.2234276059115171e-05  -1.6570456126608768e+11  1.9116735263011804e+09  5.2814385220565821e-02  -3.3817757292273856e-11  2.2212328485988938e+14  -8.5689709975815663e+02  -1.7842250327118448e-11  1.6588615984358541e+06  -1.5619434683063429e-12  -1.6387679175664362e-06  1.4321061888162443e+07  1.0659124445096102e-11  -6.2183318531855225e+14  6.4306766900197936e-13  8.1571644356858861e-06  1.5634816110761633e-12  5.1621852816128683e+09  -1.7846777344598679e+04  -1.8748899327913131e+00  -5.4824542259356940e+03  1.4567090113710924e-11  -2.5366952115798067e-07  7.0810575493076730e+08  -1.4602159877152755e-10  -4.7510046533558585e+02  3.7975839533486737e-03  -5.5301539746432082e-12  -5.1979707040300485e-12  -3.6062763575126912e+04  1.8143523613733131e-08  1.8643166475697386e+08  4.2063076760029345e-03  2.1307923433698292e+05  -4.5998550299895612e+02  -4.8080184488434503e-12  -4.6002077960706749e-07  -9.3258775957065441e-06  1.2788107779939158e-08  9.4987742027976049e-08  -9.2842517689706028e+08  4.3357875056619385e+10  -2.3954337931298994e+14  3.1209844925009644e+10  -2.3500618049275046e-06  -5.0919071587415283e+11  5.7446478792175584e+07  -8.3515956691639905e-07  -5.3226450543316889e-12  2.8857781625963636e-10  -1.1799899964029530e+02  7.5008279631076054e+00  4.2461520525293112e-04  -3.4815202700755272e+10  -1.4558737447830259e-03  -4.0737384749635999e-12  -6.6738041889551905e-12  -6.9746461396959476e-11  2.9922649828829906e-01  1.8450565316342123e-07  -1.8991542696395291e-03  -4.2896948509582698e-08  -1.7618515588136470e-06  -4.3713987279069040e-07  -2.6752033099078471e+02  1.2786933748901785e-06  -1.0803806299514938e+06  -2.2641631351977171e+03  7.6749654472901602e+04  1.5419956222311991e+03  1.5366134264148439e+06  5.1792250178539753e+09  -1.1883728619572261e-07  1.8150964388149197e+09  -1.9024260140325724e-04  5.1837491632912225e+14  -8.6908878033331433e+01  -3.1555110050607659e+07  4.8502245157440018e+05  1.4686059524460642e+10  -9.3174272246363963e-10  1.4946281858693657e-11  3.4486338947658614e-12  -7.2772292718749266e+13  1.4212807409863628e+00  1.6204699183454933e+06  1.6372598315660607e+07  1.9598884422704503e-09  1.1666649577787839e+03  2.5387312472173320e-12  -1.9708056038274625e+14  1.1482119744368656e+13  -7.9187131595012099e+06  -1.0611117236744405e-03  -3.4779106564259465e-08  1.4961767391953640e-09  -1.3127283873560006e-03  -3.2267706311260693e-03  -9.8583147531308150e+03  -1.2018530541748485e-09  -6.2232759566198535e+07  -3.4024737051400905e+06  6.8472158105271893e-07  1.1996924272499570e+14  -3.9890062359577046e-02  8.5171874196087923e+06  6.3640389708966544e-02  -1.8512282208325445e+02  -5.1381521536682282e+00  -1.2069475506893343e-03  -2.4457932934454637e-12  5.5476320555791138e-07  1.0498406529943959e-11  5.4330954839220932e-08  -1.7505052291908843e-10  -9.5139729798374023e+10  -2.0646715250940756e-06  2.3725534992846067e+04  7.0946562174537372e-05  4.5246030360371286e+08  -9.1200136781233941e+03  1.6627318569234900e+11  6.8242340561053733e-10  6.5186092190525210e+08  -9.3299255126908744e-11  7.4327227198065710e-13  1.113541