<?xml version="1.0"?>
<VTKFile type="UnstructuredGrid"  version="0.1"  >
<UnstructuredGrid>
<Piece  NumberOfPoints="20054" NumberOfCells="39478">
<Points>
<DataArray  type="Float64"  NumberOfComponents="3"  format="ascii">1 0 0  0.9997998037428526 0.02000880895389431 0  0.9991992951284931 0.04000960653046352 0  0.9981987145960756 0.05999438456007805 0  0.9967984627705549 0.07995514128721501 0  0.9949991003022806 0.09988388457430118 0  0.9928013476425149 0.1197726351017051 0  0.9902060847549715 0.139613429562597 0  0.987214350763483 0.1593983238513969 0  0.9838273435359444 0.1791193962445356 0  0.9800464192046954 0.198768750572253 0  0.9758730916235354 0.2183385193801655 0  0.9713090317615876 0.237820867079336 0  0.9663560670342555 0.2572079930835849 0  0.9610161805715396 0.2764921349327862 0  0.9552915104240066 0.2956655714008991 0  0.9491843487067304 0.3147206255874884 0  0.9426971406815462 0.3336496679914983 0  0.9358324837779861 0.3524451195660473 0  0.9285931265532873 0.3710994547530225 0  0.9209819675918909 0.3896052044962556 0  0.9130020543448703 0.4079549592320781 0  0.9046565819097542 0.4261413718560547 0  0.8959488917512338 0.4441571606647087 0  0.8868824703632656 0.4619951122710622 0  0.8774609478731046 0.4796480844928215 0  0.8676880965878291 0.4971090092120542 0  0.8575678294839372 0.5143708952052096 0  0.8471041986406199 0.5314268309423539 0  0.8363013936173391 0.5482699873544935 0  0.8251637397763597 0.5648936205678837 0  0.8136956965509062 0.5812910746042258 0  0.8019018556596399 0.5974557840456699 0  0.7897869392681683 0.6133812766635599 0  0.777355798098326 0.6290611760098652 0  0.7646134094859813 0.6444892039702628 0  0.7515648753881492 0.6596591832778468 0  0.7382154203402046 0.6745650399864606 0  0.7245703893640189 0.6892008059026586 0  0.7106352458278521 0.7035606209753273 0  0.6964155692588616 0.7176387356420051 0  0.6819170531091018 0.7314295131309636 0  0.6671455024759069 0.7449274317181303 0  0.6521068317775753 0.7581270869379442 0  0.6368070623852795 0.7710231937472638 0  0.6212523202121545 0.7836105886414595 0  0.6054488332605282 0.795884231721841 0  0.5894029291282759 0.8078392087135958 0  0.5731210324752972 0.8194707329334278 0  0.5566096624511305 0.8307741472061095 0  0.5398754300847343 0.8417449257291802 0  0.5229250356374803 0.8523786758850435 0  0.5057652659204196 0.8626711399997378 0  0.4884029915768944 0.8726181970476778 0  0.4708451643315825 0.8822158643016828 0  0.45309881420708 0.8914602989276292 0  0.4351710467091336 0.9003477995230937 0  0.4170690399816468 0.9088748075993677 0  0.398800041932607 0.9170379090062476 0  0.3803713673320772 0.9248338352990368 0  0.3617903948834157 0.9322594650472057 0  0.3430645642688987 0.9393118250841893 0  0.3242013731709288 0.9459880916978206 0  0.3052083742700172 0.952285591760924 0  0.2860931722207478 0.9582018038016155 0  0.2668634206069304 0.963734359012881 0  0.2475268188771628 0.9688810422010291 0  0.2280911092620296 0.9736397926726377 0  0.2085640736741707 0.9780087050596407 0  0.1889535305924618 0.9819860300822225 0  0.1692673319315541 0.9855701752492174 0  0.1495133598980264 0.9887597054957302 0  0.1296995238344084 0.9915533437577263 0  0.1098337570523395 0.9939499714833577 0  0.08992401365612977 0.9959486290808237 0  0.06997826535799723 0.9975485163025836 0  0.05000449828625179 0.9987489925657699 0  0.03001070978771124 0.9995495772086734 0  0.01000490522562346 0.9999499496831961 0  -0.01000490522562333 0.9999499496831961 0  -0.03001070978771133 0.9995495772086734 0  -0.05000449828625144 0.9987489925657699 0  -0.06997826535799688 0.9975485163025836 0  -0.08992401365612987 0.9959486290808237 0  -0.1098337570523394 0.9939499714833577 0  -0.1296995238344082 0.9915533437577263 0  -0.1495133598980262 0.9887597054957303 0  -0.1692673319315537 0.9855701752492174 0  -0.1889535305924614 0.9819860300822226 0  -0.2085640736741705 0.9780087050596407 0  -0.2280911092620295 0.9736397926726377 0  -0.2475268188771627 0.9688810422010291 0  -0.2668634206069302 0.9637343590128811 0  -0.2860931722207475 0.9582018038016156 0  -0.3052083742700173 0.9522855917609239 0  -0.3242013731709289 0.9459880916978205 0  -0.3430645642688986 0.9393118250841894 0  -0.3617903948834154 0.9322594650472058 0  -0.380371367332077 0.924833835299037 0  -0.3988000419326071 0.9170379090062476 0  -0.4170690399816465 0.9088748075993678 0  -0.4351710467091335 0.9003477995230939 0  -0.4530988142070799 0.8914602989276292 0  -0.4708451643315824 0.8822158643016829 0  -0.4884029915768945 0.8726181970476778 0  -0.5057652659204197 0.8626711399997378 0  -0.5229250356374801 0.8523786758850437 0  -0.5398754300847342 0.8417449257291804 0  -0.5566096624511303 0.8307741472061098 0  -0.5731210324752971 0.8194707329334279 0  -0.589402929128276 0.8078392087135957 0  -0.6054488332605281 0.7958842317218411 0  -0.6212523202121542 0.7836105886414597 0  -0.6368070623852793 0.7710231937472639 0  -0.652106831777575 0.7581270869379444 0  -0.6671455024759069 0.7449274317181304 0  -0.6819170531091018 0.7314295131309636 0  -0.6964155692588616 0.7176387356420052 0  -0.7106352458278521 0.7035606209753273 0  -0.7245703893640187 0.6892008059026588 0  -0.7382154203402043 0.6745650399864608 0  -0.751564875388149 0.6596591832778469 0  -0.7646134094859813 0.6444892039702628 0  -0.7773557980983258 0.6290611760098654 0  -0.7897869392681683 0.6133812766635599 0  -0.8019018556596398 0.59745578404567 0  -0.8136956965509062 0.5812910746042258 0  -0.8251637397763595 0.5648936205678839 0  -0.836301393617339 0.5482699873544935 0  -0.8471041986406197 0.5314268309423542 0  -0.8575678294839372 0.5143708952052097 0  -0.8676880965878292 0.497109009212054 0  -0.8774609478731045 0.4796480844928216 0  -0.8868824703632656 0.4619951122710621 0  -0.8959488917512338 0.4441571606647088 0  -0.904656581909754 0.426141371856055 0  -0.9130020543448703 0.4079549592320783 0  -0.920981967591891 0.3896052044962555 0  -0.9285931265532872 0.3710994547530226 0  -0.9358324837779861 0.3524451195660473 0  -0.9426971406815462 0.3336496679914984 0  -0.9491843487067303 0.3147206255874888 0  -0.9552915104240065 0.2956655714008993 0  -0.9610161805715396 0.2764921349327862 0  -0.9663560670342555 0.2572079930835851 0  -0.9713090317615876 0.2378208670793361 0  -0.9758730916235353 0.2183385193801658 0  -0.9800464192046954 0.198768750572253 0  -0.9838273435359444 0.1791193962445354 0  -0.987214350763483 0.159398323851397 0  -0.9902060847549714 0.1396134295625972 0  -0.9928013476425149 0.1197726351017052 0  -0.9949991003022804 0.09988388457430147 0  -0.9967984627705549 0.07995514128721509 0  -0.9981987145960756 0.05999438456007793 0  -0.9991992951284931 0.04000960653046362 0  -0.9997998037428526 0.02000880895389464 0  -1 1.224646799147353e-16 0  -0.9997998037428526 -0.0200088089538944 0  -0.9991992951284931 -0.04000960653046338 0  -0.9981987145960756 -0.05999438456007812 0  -0.9967984627705549 -0.07995514128721484 0  -0.9949991003022806 -0.09988388457430078 0  -0.9928013476425149 -0.1197726351017049 0  -0.9902060847549715 -0.1396134295625965 0  -0.9872143507634831 -0.1593983238513963 0  -0.9838273435359444 -0.1791193962445356 0  -0.9800464192046953 -0.1987687505722532 0  -0.9758730916235354 -0.2183385193801655 0  -0.9713090317615876 -0.2378208670793363 0  -0.9663560670342556 -0.2572079930835848 0  -0.9610161805715396 -0.276492134932786 0  -0.9552915104240066 -0.2956655714008991 0  -0.9491843487067305 -0.3147206255874881 0  -0.9426971406815464 -0.3336496679914978 0  -0.9358324837779862 -0.3524451195660471 0  -0.9285931265532875 -0.371099454753022 0  -0.9209819675918909 -0.3896052044962557 0  -0.9130020543448704 -0.407954959232078 0  -0.9046565819097541 -0.4261413718560548 0  -0.8959488917512338 -0.4441571606647086 0  -0.8868824703632655 -0.4619951122710623 0  -0.8774609478731046 -0.4796480844928214 0  -0.8676880965878293 -0.4971090092120538 0  -0.8575678294839373 -0.5143708952052095 0  -0.84710419864062 -0.5314268309423537 0  -0.8363013936173395 -0.5482699873544929 0  -0.8251637397763596 -0.5648936205678838 0  -0.8136956965509061 -0.5812910746042259 0  -0.8019018556596399 -0.5974557840456699 0  -0.7897869392681682 -0.61338127666356 0  -0.777355798098326 -0.6290611760098652 0  -0.7646134094859816 -0.6444892039702625 0  -0.7515648753881492 -0.6596591832778468 0  -0.7382154203402048 -0.6745650399864603 0  -0.7245703893640192 -0.6892008059026583 0  -0.7106352458278522 -0.7035606209753272 0  -0.6964155692588621 -0.7176387356420046 0  -0.6819170531091017 -0.7314295131309637 0  -0.667145502475907 -0.7449274317181303 0  -0.6521068317775756 -0.758127086937944 0  -0.6368070623852792 -0.7710231937472641 0  -0.6212523202121544 -0.7836105886414596 0  -0.6054488332605283 -0.795884231721841 0  -0.5894029291282762 -0.8078392087135956 0  -0.5731210324752977 -0.8194707329334274 0  -0.5566096624511304 -0.8307741472061095 0  -0.5398754300847344 -0.8417449257291802 0  -0.5229250356374798 -0.8523786758850437 0  -0.5057652659204195 -0.8626711399997379 0  -0.4884029915768943 -0.872618197047678 0  -0.4708451643315825 -0.8822158643016828 0  -0.4530988142070805 -0.8914602989276289 0  -0.4351710467091333 -0.900347799523094 0  -0.4170690399816467 -0.9088748075993677 0  -0.3988000419326073 -0.9170379090062475 0  -0.3803713673320777 -0.9248338352990366 0  -0.3617903948834162 -0.9322594650472055 0  -0.3430645642688988 -0.9393118250841893 0  -0.3242013731709283 -0.9459880916978207 0  -0.3052083742700169 -0.9522855917609241 0  -0.2860931722207477 -0.9582018038016155 0  -0.2668634206069305 -0.963734359012881 0  -0.2475268188771631 -0.968881042201029 0  -0.2280911092620301 -0.9736397926726376 0  -0.2085640736741706 -0.9780087050596407 0  -0.1889535305924619 -0.9819860300822225 0  -0.1692673319315544 -0.9855701752492173 0  -0.1495133598980269 -0.9887597054957302 0  -0.1296995238344092 -0.9915533437577262 0  -0.1098337570523396 -0.9939499714833577 0  -0.08992401365612945 -0.9959486290808237 0  -0.06997826535799691 -0.9975485163025836 0  -0.05000449828625168 -0.9987489925657699 0  -0.030010709787
[...]
<PointData  Scalars="Displacement"> 
<DataArray  type="Float64"  Name="Displacement"  format="ascii">0.0000000000000000e+00  0.0000000000000000e+00  0.0000000000000000e+00  0.0000000000000000e+00  0.0000000000000000e+00  0.0000000000000000e+00  0.0000000000000000e+00  0.0000000000000000e+00  0.0000000000000000e+00  0.0000000000000000e+00  0.0000000000000000e+00  0.0000000000000000e+00  0.0000000000000000e+00  0.0000000000000000e+00  0.0000000000000000e+00  0.0000000000000000e+00  0.0000000000000000e+00  0.0000000000000000e+00  0.0000000000000000e+00  0.0000000000000000e+00  0.0000000000000000e+00  0.0000000000000000e+00  0.0000000000000000e+00  0.0000000000000000e+00  0.0000000000000000e+00  0.0000000000000000e+00  0.0000000000000000e+00  0.0000000000000000e+00  0.0000000000000000e+00  0.0000000000000000e+00  0.0000000000000000e+00  0.0000000000000000e+00  0.0000000000000000e+00  0.0000000000000000e+00  0.0000000000000000e+00  0.0000000000000000e+00  0.0000000000000000e+00  0.0000000000000000e+00  0.0000000000000000e+00  0.0000000000000000e+00  0.0000000000000000e+00  0.0000000000000000e+00  0.0000000000000000e+00  0.0000000000000000e+00  0.0000000000000000e+00  0.0000000000000000e+00  0.0000000000000000e+00  0.0000000000000000e+00  0.0000000000000000e+00  0.0000000000000000e+00  0.0000000000000000e+00  0.0000000000000000e+00  0.0000000000000000e+00  0.0000000000000000e+00  0.0000000000000000e+00  0.0000000000000000e+00  0.0000000000000000e+00  0.0000000000000000e+00  0.0000000000000000e+00  0.0000000000000000e+00  0.0000000000000000e+00  0.0000000000000000e+00  0.0000000000000000e+00  0.0000000000000000e+00  0.0000000000000000e+00  0.0000000000000000e+00  0.0000000000000000e+00  0.0000000000000000e+00  0.0000000000000000e+00  0.0000000000000000e+00  0.0000000000000000e+00  0.0000000000000000e+00  0.0000000000000000e+00  0.0000000000000000e+00  0.0000000000000000e+00  0.0000000000000000e+00  0.0000000000000000e+00  0.0000000000000000e+00  0.0000000000000000e+00  0.0000000000000000e+00  0.0000000000000000e+00  0.0000000000000000e+00  0.0000000000000000e+00  0.0000000000000000e+00  0.0000000000000000e+00  0.0000000000000000e+00  0.0000000000000000e+00  0.0000000000000000e+00  0.0000000000000000e+00  0.0000000000000000e+00  0.0000000000000000e+00  0.0000000000000000e+00  0.0000000000000000e+00  0.0000000000000000e+00  0.0000000000000000e+00  0.0000000000000000e+00  0.0000000000000000e+00  0.0000000000000000e+00  0.0000000000000000e+00  0.0000000000000000e+00  0.0000000000000000e+00  0.0000000000000000e+00  0.0000000000000000e+00  0.0000000000000000e+00  0.0000000000000000e+00  0.0000000000000000e+00  0.0000000000000000e+00  0.0000000000000000e+00  0.0000000000000000e+00  0.0000000000000000e+00  0.0000000000000000e+00  0.0000000000000000e+00  0.0000000000000000e+00  0.0000000000000000e+00  0.0000000000000000e+00  0.0000000000000000e+00  0.0000000000000000e+00  0.0000000000000000e+00  0.0000000000000000e+00  0.0000000000000000e+00  0.0000000000000000e+00  0.0000000000000000e+00  0.0000000000000000e+00  0.0000000000000000e+00  0.0000000000000000e+00  0.0000000000000000e+00  0.0000000000000000e+00  0.0000000000000000e+00  0.0000000000000000e+00  0.0000000000000000e+00  0.0000000000000000e+00  0.0000000000000000e+00  0.0000000000000000e+00  0.0000000000000000e+00  0.0000000000000000e+00  0.0000000000000000e+00  0.0000000000000000e+00  0.0000000000000000e+00  0.0000000000000000e+00  0.0000000000000000e+00  0.0000000000000000e+00  0.0000000000000000e+00  0.0000000000000000e+00  0.0000000000000000e+00  0.0000000000000000e+00  0.0000000000000000e+00  0.0000000000000000e+00  0.0000000000000000e+00  0.0000000000000000e+00  0.0000000000000000e+00  0.0000000000000000e+00  0.0000000000000000e+00  0.0000000000000000e+00  0.0000000000000000e+00  0.0000000000000000e+00  0.0000000000000000e+00  0.0000000000000000e+00  0.0000000000000000e+00  0.0000000000000000e+00  0.0000000000000000e+00  0.0000000000000000e+00  0.0000000000000000e+00  0.0000000000000000e+00  0.0000000000000000e+00  0.0000000000000000e+00  0.0000000000000000e+00  0.0000000000000000e+00  0.0000000000000000e+00  0.0000000000000000e+00  0.0000000000000000e+00  0.0000000000000000e+00  0.0000000000000000e+00  0.0000000000000000e+00  0.0000000000000000e+00  0.0000000000000000e+00  0.0000000000000000e+00  0.0000000000000000e+00  0.0000000000000000e+00  0.0000000000000000e+00  0.0000000000000000e+00  0.0000000000000000e+00  0.0000000000000000e+00  0.0000000000000000e+00  0.0000000000000000e+00  0.0000000000000000e+00  0.0000000000000000e+00  0.0000000000000000e+00  0.0000000000000000e+00  0.0000000000000000e+00  0.0000000000000000e+00  0.0000000000000000e+00  0.0000000000000000e+00  0.0000000000000000e+00  0.0000000000000000e+00  0.0000000000000000e+00  0.0000000000000000e+00  0.0000000000000000e+00  0.0000000000000000e+00  0.0000000000000000e+00  0.0000000000000000e+00  0.0000000000000000e+00  0.0000000000000000e+00  0.0000000000000000e+00  0.0000000000000000e+00  0.0000000000000000e+00  0.0000000000000000e+00  0.0000000000000000e+00  0.0000000000000000e+00  0.0000000000000000e+00  0.0000000000000000e+00  0.0000000000000000e+00  0.0000000000000000e+00  0.0000000000000000e+00  0.0000000000000000e+00  0.0000000000000000e+00  0.0000000000000000e+00  0.0000000000000000e+00  0.0000000000000000e+00  0.0000000000000000e+00  0.0000000000000000e+00  0.0000000000000000e+00  0.0000000000000000e+00  0.0000000000000000e+00  0.0000000000000000e+00  0.0000000000000000e+00  0.0000000000000000e+00  0.0000000000000000e+00  0.0000000000000000e+00  0.0000000000000000e+00  0.0000000000000000e+00  0.0000000000000000e+00  0.0000000000000000e+00  0.0000000000000000e+00  0.0000000000000000e+00  0.0000000000000000e+00  0.0000000000000000e+00  0.0000000000000000e+00  0.0000000000000000e+00  0.0000000000000000e+00  0.0000000000000000e+00  0.0000000000000000e+00  0.0000000000000000e+00  0.0000000000000000e+00  0.0000000000000000e+00  0.0000000000000000e+00  0.0000000000000000e+00  0.0000000000000000e+00  0.0000000000000000e+00  0.0000000000000000e+00  0.0000000000000000e+00  0.0000000000000000e+00  0.0000000000000000e+00  0.0000000000000000e+00  0.0000000000000000e+00  0.0000000000000000e+00  0.0000000000000000e+00  0.0000000000000000e+00  0.0000000000000000e+00  0.0000000000000000e+00  0.0000000000000000e+00  0.0000000000000000e+00  0.0000000000000000e+00  0.0000000000000000e+00  0.0000000000000000e+00  0.0000000000000000e+00  0.0000000000000000e+00  0.0000000000000000e+00  0.0000000000000000e+00  0.0000000000000000e+00  0.0000000000000000e+00  0.0000000000000000e+00  0.0000000000000000e+00  0.0000000000000000e+00  0.0000000000000000e+00  0.0000000000000000e+00  0.0000000000000000e+00  0.0000000000000000e+00  0.0000000000000000e+00  0.0000000000000000e+00  0.0000000000000000e+00  0.0000000000000000e+00  0.0000000000000000e+00  0.0000000000000000e+00  0.0000000000000000e+00  0.0000000000000000e+00  0.0000000000000000e+00  0.0000000000000000e+00  0.0000000000000000e+00  0.0000000000000000e+00  0.0000000000000000e+00  0.0000000000000000e+00  0.0000000000000000e+00  0.0000000000000000e+00  0.0000000000000000e+00  0.0000000000000000e+00  0.0000000000000000e+00  0.0000000000000000e+00  0.0000000000000000e+00  0.0000000000000000e+00  0.0000000000000000e+00  0.0000000000000000e+00  0.0000000000000000e+00  0.0000000000000000e+00  0.0000000000000000e+00  0.0000000000000000e+00  0.0000000000000000e+00  0.0000000000000000e+00  0.0000000000000000e+00  0.0000000000000000e+00  0.0000000000000000e+00  0.0000000000000000e+00  0.0000000000000000e+00  0.0000000000000000e+00  0.0000000000000000e+00  -1.1091493714987036e+21  3.7530130351166106e+14  7.9653246854696010e+15  -5.0426781667329600e+15  7.5707711080603520e+15  -6.5919985523697625e+14  -1.3448070381412646e+13  6.4068946037508705e+10  2.0744368374017525e+10  2.1206619370421836e+08  2.2509287318775425e+09  5.1212201246851588e+19  -4.7199077845314264e+08  1.0766893588522067e+07  -5.5907162809090294e+21  9.9509897602554921e+21  -5.1124065647970652e+06  -9.3897293186370414e+04  -1.1724881781963939e+07  -3.5427577471661763e+06  -1.2038702676313852e+06  -5.9262978200635090e+06  1.3479945296106215e+06  -1.2799605485725297e+18  1.2547481244948255e+18  1.2338497869489313e+21  -1.4916586915248085e+07  -8.8016153219680724e+04  -1.2439362563409170e+05  3.0409130246513548e+16  1.0288846914038407e+05  -1.5683427023124246e+22  2.4143756939989751e+22  9.9271456264971640e+15  -3.9952898691832837e+04  1.8210982313468719e+03  -5.2658189759198358e+03  8.1487187787599157e+02  6.1846481186437786e+03  -1.5853735439037396e+13  -2.8916689549520219e+13  5.1963802183986689e+12  3.3710161726241787e+12  1.5777620266734487e+22  -2.9067545664788572e+03  7.5362200361425516e+02  -1.5226096907670519e+03  -1.3065534694344476e+03  -1.0681171060085708e+12  2.3836948927026514e+12  -3.6883135077838850e+08  9.4116289214500719e+13  1.2145904425952924e+13  -1.9976195237303685e+15  -3.3100258966827789e+02  1.8280099041038691e+21  -2.1824102841308058e+03  5.3718594373257709e+01  2.9683319741873816e+19  -3.9160159303865186e+02  -8.1758063818621068e+01  -3.0434297524898281e+09  -5.7909399513970141e+02  -7.6727450298238307e+02  -7.6257356424634630e+20  9.5408539541865004e+21  -2.9698330995151978e+19  1.7650296264265928e+16  2.1077795660687165e+18  2.4952265047813417e+21  -1.1677926278975934e+20  -2.9065819292517017e+11  -6.3077702290910957e+10  -9.1802101100854919e+10  -1.8031128058340534e+10  2.5548022855910875e+19  4.0598325865691045e+01  6.6710581085972912e+16  6.3515877046393250e+19  -2.4047178872857471e+09  2.6106916017393637e+01  -6.7905578161779866e+17  -6.4021584243853225e+00  -5.6090124043648322e+00  -4.2276034009096634e+01  7.1391243565415759e+22  -1.1972332866055130e+01  -1.9484448556171671e+01  3.5625212334806489e+00  2.0221463301553582e+19  1.0304866790180616e+07  4.8607111585755741e-01  1.6704510717782541e+10  1.1880484900350975e+01  1.1604055895362854e+08  1.7342495268775177e+22  -7.9604318205052024e+01  3.5431743005229293e+01  -2.3681771961157572e+08  -5.4457789506232895e+07  6.6779976539714003e+09  -1.4537840301841049e+09  1.2099864450040009e+01  3.8582526285182336e+16  8.2878527165056234e+13  4.9757761454287578e+13  6.0892420466760304e+16  -4.6967196818739623e+07  -5.3871200595766470e+07  -7.9193734736822403e+00  -8.1055413745394150e+15  4.3644773766577130e+00  -1.1426468639810032e+01  4.6680478930552649e+11  -3.8714505352906409e+11  2.9310539862486106e+08  -2.4403202991106596e+00  -2.3994881038187548e+00  1.7931005540778435e+00  2.9401003281393971e+22  -5.6995862866684840e+15  3.4931018787420396e+05  -1.9091285906446090e+21  -1.1299501729455959e+02  -3.3966958341119863e+07  -1.9084176946362443e+09  1.8131099529380831e-01  1.7826597134712829e+00  -1.2030795934521556e+06  -5.4972329091612017e+05  -1.2924279550977949e+10  2.1305699653966803e+07  3.0053557561052271e+11  -1.8207183851980232e+16  -3.4482245541515259e+12  3.0336915652328040e+07  -5.4732883400884207e+00  -2.5992595985729015e+22  2.0404143342406844e+19  -1.9859973022561206e+21  -3.2058304960698657e+21  1.8717556010482422e+22  1.7456302314254917e+04  -3.1211728487080102e+17  1.7293219217503926e+12  -9.8778032833350124e+04  6.7600292399279759e+04  -2.0467340803628799e+21  1.6161545584873485e+23  -5.9183122873969078e+09  2.8618936558816543e-01  -3.9436211225527207e+12  7.3289162834677975e+18  -4.7085399051324948e+05  6.0482186400389927e+05  1.3050394526259431e+03  2.6068861766775203e-01  -2.7764627226170382e+04  -8.4644098440678917e-01  1.5469196828283002e-01  -1.0165865396800748e+00  5.3107283317952882e+04  -1.1867722790542755e+09  2.8670704015732715e+00  -4.6209827987422905e+03  2.3185127040440945e+13  4.1969576199914078e+05  6.6388722251840795e+00  -1.3392263018876716e-01  -1.4316801949173506e+05  -3.6651927707672668e+11  -2.6797006416926993e+21  6.1331238063118850e+04  -1.6952601104668966e+18  1.4937001172894379e-01  4.5459011558560680e+16  -2.1711267014239224e-01  7.7825782955538416e+06  2.4182410173903893e-02  -9.2640867533915840e+15  3.7609762441760067e+04  9.1226269672995225e+14  -6.2243580142004021e+10  1.1924068439394766e+23  1.8769489141869209e+00  -3.5654412949290359e+13  -1.3514087031732620e+10  1.2317254575185072e+16  -1.9199093767894704e+00  2.6643144857506099e+03  6.1493912580269405e-01  -2.6706376746745599e+22  2.7841224962359182e-03  -9.3350613138069105e-01  5.6076872578417414e+13  8.0965394912625971e+18  -1.4834350146515488e+06  5.3060665236637207e+04  7.4834969551148000e+14  1.3265982895038869e+09  4.6867129459452380e+11  3.8132567877343945e+12  2.7287654172344710e+15  -9.1250087012287045e+09  6.8150893741214441e+11  4.4603791462430636e+04  -4.1964728506339023e+04  3.2418281706322128e+21  -1.9437036777160916e+01  -8.3157765466923243e+04  -8.4794648550676014e+06  -9.6265999417587857e+21  -3.9728712980212755e+21  9.9740070065296796e-02  -1.6856624508889656e-01  1.7978950854870411e+04  2.9513078610562400e+16  -9.1392678083149148e-01  -4.0260573224989367e+09  -1.0171642088680750e+10  9.6585410526816034e+01  9.6574484840188980e+07  9.9868610251785459e+17  7.7133209882927368e+10  3.0023930833887696e+08  2.4659801582827567e-01  7.0803264534704521e+07  9.7734995764463692e-02  2.4651104795666289e+09  -9.2026846185706013e-01  1.1305799987736787e+00  -3.6709091298455593e-01  -1.1543102861180919e-01  -7.3101794601727946e+01  3.3805819942699572e-02  -4.2206429914527405e+15  6.5988577127204370e+11  1.1283417724953943e+04  -1.9266642855205239e+03  1.1845962794304084e+22  -4.7685702981567526e+20  -4.8837147325117683e+10  -4.0531465325381111e+10  -8.1521087506091561e-01  2.7960433536053338e+14  2.6692598524288308e-01  -3.9007161287167878e-02  -3.3082926636099064e-01  6.8242592465422426e+17  6.7294323364470700e+15  -2.9045794232850180e+13  1.8105868129644441e+13  -9.4631271397781154e+21  7.4074823740752774e+21  -4.8933352860674768e+03  1.2988547389244621e+18  -4.7876713693790167e+05  6.9387576840854902e+12  4.5094559893046599e-01  -2.6208252935178589e-01  1.3290270492221509e-01  8.6592454773524150e+07  1.9453910707750986e+03  2.2728503758527686e+12  9.5416899255919560e+15  5.0368950325204845e+17  -2.0404285535726472e+03  -3.1203736474226322e+00  -9.1299032898926213e-01  -5.2443716359780732e+12  -5.8986628944835265e-02  -2.3338271180083005e+18  3.7533115640774864e+16  -1.1293889127690196e+06  2.6405126443177913e+04  -5.1077546565056965e+06  4.7882779964967625e+19  5.1983448327003374e+19  -1.7222418915692585e+18  1.2335093204877873e+19  6.6544118711998988e+19  -1.8330349567120769e+21  8.2984468029964653e+22  -2.8589733733151927e+09  7.9673978567909971e+07  -3.8098368613648498e+06  4.1888867439239836e+21  -1.7745074156348478e-01  5.3196360645854547e+03  -3.7430421801311208e+16  2.4340647482225817e+22  -1.7150243373199014e+16  -1.7916146743584442e+10  3.3494969912220825e+12  -1.0227033747667023e+21  2.6397146990098600e-02  -9.8233460357792047e+13  4.8134334868575512e-01  7.1370265128754343e-02  5.5681494167284151e-01  -7.5397838031306464e+20  2.2462917002316732e+21  5.1238076272643087e+20  -3.8594533667827142e+21  -5.7461472692180552e+07  -6.4486829422063583e+10  1.2031338634706514e+07  1.0372042387510240e+12  -1.1211721423670034e+10  -9.2851609483099384e+09  3.2542335114781462e+14  -1.5549119746862806e+10  8.1442190838685745e+19  -1.5709727599463435e+06  5.5897747065714141e+21  7.2679012424977521e+20  2.3561594271143721e+12  8.6515058415486701e+06  2.8878697473464396e+07  1.8690348501432426e-03  -4.4843551717843984e+04  -1.9521858393145859e+05  8.0448209326468303e-02  -4.4966024705102012e+19  -1.4547620081816022e-02  5.6306988528088435e-03  2.1800569853651976e+02  5.5585691565115411e+17  6.1715574769216287e+18  3.6791249527343735e+21  -1.2503951908858865e-01  1.5959178032796534e+07  -3.7145267662693777e+09  -4.1566447763886545e+15  6.1226461407799900e+18  -1.5119950974459767e+06  -1.5152100386852128e+14  -1.0402924507211027e+20  2.8008683932569957e+22  -4.6721093822453327e+07  -4.7169109453428591e+03  -2.7735724260262675e+15  3.9619060588125944e+02  -1.4478541675430864e+02  -1.7610231352911171e+08  -8.7093488996976123e-02  -2.1597590140242315e+04  -1.0016488713762444e+05  3.4071208984615207e-02  1.9675204661369741e+08  -1.5497377489604926e+09  -1.3621068008988943e-01  -2.3080653777740088e+02  -1.6518828319992768e-02  6.4337512074967310e+02  -1.1004721772477958e+03  4.6261493411253584e+12  7.5750852987132429e+21  -1.4485062410302476e+03  2.1564926530912162e+21  2.6426161534672948e+20  -6.1650901691299958e+04  4.7475301864358582e-02  -8.1772573541295398e+11  -2.3400895737526946e+02  2.9013691793325818e+20  -1.2457656870152152e+02  1.3744083010503763e+07  -4.5300964545970690e+21  -1.7969359438595395e+04  2.4935872651675621e-02  3.3552204089281168e+00  -4.6214473687632490e+04  1.5947378627211248e+19  -3.5479340072957459e+17  -9.0012971076210774e+06  1.3144961971025970e-01  -6.8645736200945260e+21  2.8229780104391187e+11  -4.8694153325610300e-02  -3.1361568192220862e+14  2.2330428405806409e-02  5.6293524753226177e+02  -1.9368980003243220e+15  -3.2656539159375997e-01  3.6404665260198716e+22  -1.0162908089735418e-03  -3.9390158402895271e+04  -2.8972881677148822e-02  -4.9506009278739578e+17  1.8384456996388120e+12  8.6734287203543019e+08  -1.3000812086274428e+11  -1.1668005764291989e-02  -1.6346211865399403e+03  2.7411222559715528e+16  1.0294447016262076e+00  4.3803621753300613e+10  -7.4640965212049731e+05  1.6910207913606031e-02  2.1744474266341601e-02  -2.0370911138391465e+13  -4.6844720242675763e+01  -5.0779893476528710e+15  -3.6983574039593572e+06  4.7266626818735102e+13  -8.6248338701163193e+10  4.6731008077735723e-03  -2.2344523058494718e+02  1.9081059705065009e+03  -3.8817669112003344e+01  -1.0853623379566866e+02  2.5232996745992534e+17  -1.0342928308964790e+19  2.3428034690451277e+22  -1.8319981644747333e+18  1.1237865554241560e+04  5.4821388999762248e+20  -1.5344255328173062e+16  1.5281417229576232e+02  3.1199149861770682e-02  -1.4627752460444432e+00  1.0743305387371994e+11  2.4464155163181257e+09  2.9867443659554236e+05  5.9151112002655293e+18  1.8681035408762414e+07  8.3021125806034320e-03  7.4746565284541638e-03  4.4754132064934715e-01  -3.5775165645898342e+09  -7.1211793840517976e+02  5.8617453455231886e+05  3.3873662447124286e-01  2.8275349639044180e+03  6.2488250173545555e+02  6.4161312833080994e+10  -4.9408389655070314e+03  3.5006546801649905e+15  1.1234167863429937e+12  8.1739699942249111e+12  -1.7121745031355392e+11  -1.1544048434548662e+14  -7.3371147412170995e+17  2.3269335306003961e+02  -4.3604756848395619e+14  -1.3006428293897683e+05  -4.7533526092957908e+22  -2.7688833455316525e+09  3.5436479964883945e+15  -1.3182729292763270e+14  -1.9372344244688909e+18  -1.8906495279710651e+01  -1.7426253698736835e-02  1.8043781369654781e-02  4.7255681788481508e+21  3.7898366292491257e+08  -5.0764782684659273e+13  -1.8304266034731678e+15  2.2944972918674342e+01  -8.1311684868775745e+11  -1.9125515806763242e-02  5.7838160822016295e+19  -6.7837104247731048e+20  5.3253550749540500e+15  3.8960770285839256e+05  -2.1438723426902902e+02  1.2079480261377452e+02  -6.2015050382319316e+06  2.3487381773971841e+07  -5.7175495521860245e+10  7.3174912811627095e+00  1.0441857221719962e+16  2.5145520242913378e+14  -3.8461301185936136e+04  -1.0042498845842197e+22  -8.9643063333126940e+06  -5.4506170083114988e+14  -1.6281801309530327e+08  -2.1598598932300457e+10  1.1335202626056769e+09  4.3052289400926110e+05  1.2472387319814770e-02  -3.1236290348543002e+02  -1.0846166639854275e-02  -3.5383129754812266e+01  2.9844760143916066e-01  3.4882846288849019e+19  -1.1848450494569097e+04  -4.5059184215799316e+12  -5.7395262162397848e+05  7.7031251031443968e+16  4.2287289956137988e+11  2.4778232438093443e+19  -1.0221964743857441e+00  1.6890052060388206e+16  -1.1330447490590578e-01  -8.5969506373189327e-05  -5.1995058931508291e-02  -1.0096775018903364e+14  -6.1048070734837774e+00  -1.0477305375257864e-02  -4.4780525753192453e+13  4.6939498227207266e+12  3.757553549807