<?xml version="1.0"?>
<VTKFile type="UnstructuredGrid"  version="0.1"  >
<UnstructuredGrid>
<Piece  NumberOfPoints="20054" NumberOfCells="39478">
<Points>
<DataArray  type="Float64"  NumberOfComponents="3"  format="ascii">1 0 0  0.9997998037428526 0.02000880895389431 0  0.9991992951284931 0.04000960653046352 0  0.9981987145960756 0.05999438456007805 0  0.9967984627705549 0.07995514128721501 0  0.9949991003022806 0.09988388457430118 0  0.9928013476425149 0.1197726351017051 0  0.9902060847549715 0.139613429562597 0  0.987214350763483 0.1593983238513969 0  0.9838273435359444 0.1791193962445356 0  0.9800464192046954 0.198768750572253 0  0.9758730916235354 0.2183385193801655 0  0.9713090317615876 0.237820867079336 0  0.9663560670342555 0.2572079930835849 0  0.9610161805715396 0.2764921349327862 0  0.9552915104240066 0.2956655714008991 0  0.9491843487067304 0.3147206255874884 0  0.9426971406815462 0.3336496679914983 0  0.9358324837779861 0.3524451195660473 0  0.9285931265532873 0.3710994547530225 0  0.9209819675918909 0.3896052044962556 0  0.9130020543448703 0.4079549592320781 0  0.9046565819097542 0.4261413718560547 0  0.8959488917512338 0.4441571606647087 0  0.8868824703632656 0.4619951122710622 0  0.8774609478731046 0.4796480844928215 0  0.8676880965878291 0.4971090092120542 0  0.8575678294839372 0.5143708952052096 0  0.8471041986406199 0.5314268309423539 0  0.8363013936173391 0.5482699873544935 0  0.8251637397763597 0.5648936205678837 0  0.8136956965509062 0.5812910746042258 0  0.8019018556596399 0.5974557840456699 0  0.7897869392681683 0.6133812766635599 0  0.777355798098326 0.6290611760098652 0  0.7646134094859813 0.6444892039702628 0  0.7515648753881492 0.6596591832778468 0  0.7382154203402046 0.6745650399864606 0  0.7245703893640189 0.6892008059026586 0  0.7106352458278521 0.7035606209753273 0  0.6964155692588616 0.7176387356420051 0  0.6819170531091018 0.7314295131309636 0  0.6671455024759069 0.7449274317181303 0  0.6521068317775753 0.7581270869379442 0  0.6368070623852795 0.7710231937472638 0  0.6212523202121545 0.7836105886414595 0  0.6054488332605282 0.795884231721841 0  0.5894029291282759 0.8078392087135958 0  0.5731210324752972 0.8194707329334278 0  0.5566096624511305 0.8307741472061095 0  0.5398754300847343 0.8417449257291802 0  0.5229250356374803 0.8523786758850435 0  0.5057652659204196 0.8626711399997378 0  0.4884029915768944 0.8726181970476778 0  0.4708451643315825 0.8822158643016828 0  0.45309881420708 0.8914602989276292 0  0.4351710467091336 0.9003477995230937 0  0.4170690399816468 0.9088748075993677 0  0.398800041932607 0.9170379090062476 0  0.3803713673320772 0.9248338352990368 0  0.3617903948834157 0.9322594650472057 0  0.3430645642688987 0.9393118250841893 0  0.3242013731709288 0.9459880916978206 0  0.3052083742700172 0.952285591760924 0  0.2860931722207478 0.9582018038016155 0  0.2668634206069304 0.963734359012881 0  0.2475268188771628 0.9688810422010291 0  0.2280911092620296 0.9736397926726377 0  0.2085640736741707 0.9780087050596407 0  0.1889535305924618 0.9819860300822225 0  0.1692673319315541 0.9855701752492174 0  0.1495133598980264 0.9887597054957302 0  0.1296995238344084 0.9915533437577263 0  0.1098337570523395 0.9939499714833577 0  0.08992401365612977 0.9959486290808237 0  0.06997826535799723 0.9975485163025836 0  0.05000449828625179 0.9987489925657699 0  0.03001070978771124 0.9995495772086734 0  0.01000490522562346 0.9999499496831961 0  -0.01000490522562333 0.9999499496831961 0  -0.03001070978771133 0.9995495772086734 0  -0.05000449828625144 0.9987489925657699 0  -0.06997826535799688 0.9975485163025836 0  -0.08992401365612987 0.9959486290808237 0  -0.1098337570523394 0.9939499714833577 0  -0.1296995238344082 0.9915533437577263 0  -0.1495133598980262 0.9887597054957303 0  -0.1692673319315537 0.9855701752492174 0  -0.1889535305924614 0.9819860300822226 0  -0.2085640736741705 0.9780087050596407 0  -0.2280911092620295 0.9736397926726377 0  -0.2475268188771627 0.9688810422010291 0  -0.2668634206069302 0.9637343590128811 0  -0.2860931722207475 0.9582018038016156 0  -0.3052083742700173 0.9522855917609239 0  -0.3242013731709289 0.9459880916978205 0  -0.3430645642688986 0.9393118250841894 0  -0.3617903948834154 0.9322594650472058 0  -0.380371367332077 0.924833835299037 0  -0.3988000419326071 0.9170379090062476 0  -0.4170690399816465 0.9088748075993678 0  -0.4351710467091335 0.9003477995230939 0  -0.4530988142070799 0.8914602989276292 0  -0.4708451643315824 0.8822158643016829 0  -0.4884029915768945 0.8726181970476778 0  -0.5057652659204197 0.8626711399997378 0  -0.5229250356374801 0.8523786758850437 0  -0.5398754300847342 0.8417449257291804 0  -0.5566096624511303 0.8307741472061098 0  -0.5731210324752971 0.8194707329334279 0  -0.589402929128276 0.8078392087135957 0  -0.6054488332605281 0.7958842317218411 0  -0.6212523202121542 0.7836105886414597 0  -0.6368070623852793 0.7710231937472639 0  -0.652106831777575 0.7581270869379444 0  -0.6671455024759069 0.7449274317181304 0  -0.6819170531091018 0.7314295131309636 0  -0.6964155692588616 0.7176387356420052 0  -0.7106352458278521 0.7035606209753273 0  -0.7245703893640187 0.6892008059026588 0  -0.7382154203402043 0.6745650399864608 0  -0.751564875388149 0.6596591832778469 0  -0.7646134094859813 0.6444892039702628 0  -0.7773557980983258 0.6290611760098654 0  -0.7897869392681683 0.6133812766635599 0  -0.8019018556596398 0.59745578404567 0  -0.8136956965509062 0.5812910746042258 0  -0.8251637397763595 0.5648936205678839 0  -0.836301393617339 0.5482699873544935 0  -0.8471041986406197 0.5314268309423542 0  -0.8575678294839372 0.5143708952052097 0  -0.8676880965878292 0.497109009212054 0  -0.8774609478731045 0.4796480844928216 0  -0.8868824703632656 0.4619951122710621 0  -0.8959488917512338 0.4441571606647088 0  -0.904656581909754 0.426141371856055 0  -0.9130020543448703 0.4079549592320783 0  -0.920981967591891 0.3896052044962555 0  -0.9285931265532872 0.3710994547530226 0  -0.9358324837779861 0.3524451195660473 0  -0.9426971406815462 0.3336496679914984 0  -0.9491843487067303 0.3147206255874888 0  -0.9552915104240065 0.2956655714008993 0  -0.9610161805715396 0.2764921349327862 0  -0.9663560670342555 0.2572079930835851 0  -0.9713090317615876 0.2378208670793361 0  -0.9758730916235353 0.2183385193801658 0  -0.9800464192046954 0.198768750572253 0  -0.9838273435359444 0.1791193962445354 0  -0.987214350763483 0.159398323851397 0  -0.9902060847549714 0.1396134295625972 0  -0.9928013476425149 0.1197726351017052 0  -0.9949991003022804 0.09988388457430147 0  -0.9967984627705549 0.07995514128721509 0  -0.9981987145960756 0.05999438456007793 0  -0.9991992951284931 0.04000960653046362 0  -0.9997998037428526 0.02000880895389464 0  -1 1.224646799147353e-16 0  -0.9997998037428526 -0.0200088089538944 0  -0.9991992951284931 -0.04000960653046338 0  -0.9981987145960756 -0.05999438456007812 0  -0.9967984627705549 -0.07995514128721484 0  -0.9949991003022806 -0.09988388457430078 0  -0.9928013476425149 -0.1197726351017049 0  -0.9902060847549715 -0.1396134295625965 0  -0.9872143507634831 -0.1593983238513963 0  -0.9838273435359444 -0.1791193962445356 0  -0.9800464192046953 -0.1987687505722532 0  -0.9758730916235354 -0.2183385193801655 0  -0.9713090317615876 -0.2378208670793363 0  -0.9663560670342556 -0.2572079930835848 0  -0.9610161805715396 -0.276492134932786 0  -0.9552915104240066 -0.2956655714008991 0  -0.9491843487067305 -0.3147206255874881 0  -0.9426971406815464 -0.3336496679914978 0  -0.9358324837779862 -0.3524451195660471 0  -0.9285931265532875 -0.371099454753022 0  -0.9209819675918909 -0.3896052044962557 0  -0.9130020543448704 -0.407954959232078 0  -0.9046565819097541 -0.4261413718560548 0  -0.8959488917512338 -0.4441571606647086 0  -0.8868824703632655 -0.4619951122710623 0  -0.8774609478731046 -0.4796480844928214 0  -0.8676880965878293 -0.4971090092120538 0  -0.8575678294839373 -0.5143708952052095 0  -0.84710419864062 -0.5314268309423537 0  -0.8363013936173395 -0.5482699873544929 0  -0.8251637397763596 -0.5648936205678838 0  -0.8136956965509061 -0.5812910746042259 0  -0.8019018556596399 -0.5974557840456699 0  -0.7897869392681682 -0.61338127666356 0  -0.777355798098326 -0.6290611760098652 0  -0.7646134094859816 -0.6444892039702625 0  -0.7515648753881492 -0.6596591832778468 0  -0.7382154203402048 -0.6745650399864603 0  -0.7245703893640192 -0.6892008059026583 0  -0.7106352458278522 -0.7035606209753272 0  -0.6964155692588621 -0.7176387356420046 0  -0.6819170531091017 -0.7314295131309637 0  -0.667145502475907 -0.7449274317181303 0  -0.6521068317775756 -0.758127086937944 0  -0.6368070623852792 -0.7710231937472641 0  -0.6212523202121544 -0.7836105886414596 0  -0.6054488332605283 -0.795884231721841 0  -0.5894029291282762 -0.8078392087135956 0  -0.5731210324752977 -0.8194707329334274 0  -0.5566096624511304 -0.8307741472061095 0  -0.5398754300847344 -0.8417449257291802 0  -0.5229250356374798 -0.8523786758850437 0  -0.5057652659204195 -0.8626711399997379 0  -0.4884029915768943 -0.872618197047678 0  -0.4708451643315825 -0.8822158643016828 0  -0.4530988142070805 -0.8914602989276289 0  -0.4351710467091333 -0.900347799523094 0  -0.4170690399816467 -0.9088748075993677 0  -0.3988000419326073 -0.9170379090062475 0  -0.3803713673320777 -0.9248338352990366 0  -0.3617903948834162 -0.9322594650472055 0  -0.3430645642688988 -0.9393118250841893 0  -0.3242013731709283 -0.9459880916978207 0  -0.3052083742700169 -0.9522855917609241 0  -0.2860931722207477 -0.9582018038016155 0  -0.2668634206069305 -0.963734359012881 0  -0.2475268188771631 -0.968881042201029 0  -0.2280911092620301 -0.9736397926726376 0  -0.2085640736741706 -0.9780087050596407 0  -0.1889535305924619 -0.9819860300822225 0  -0.1692673319315544 -0.9855701752492173 0  -0.1495133598980269 -0.9887597054957302 0  -0.1296995238344092 -0.9915533437577262 0  -0.1098337570523396 -0.9939499714833577 0  -0.08992401365612945 -0.9959486290808237 0  -0.06997826535799691 -0.9975485163025836 0  -0.05000449828625168 -0.9987489925657699 0  -0.030010709787
[...]
<PointData  Scalars="Displacement"> 
<DataArray  type="Float64"  Name="Displacement"  format="ascii">0.0000000000000000e+00  0.0000000000000000e+00  0.0000000000000000e+00  0.0000000000000000e+00  0.0000000000000000e+00  0.0000000000000000e+00  0.0000000000000000e+00  0.0000000000000000e+00  0.0000000000000000e+00  0.0000000000000000e+00  0.0000000000000000e+00  0.0000000000000000e+00  0.0000000000000000e+00  0.0000000000000000e+00  0.0000000000000000e+00  0.0000000000000000e+00  0.0000000000000000e+00  0.0000000000000000e+00  0.0000000000000000e+00  0.0000000000000000e+00  0.0000000000000000e+00  0.0000000000000000e+00  0.0000000000000000e+00  0.0000000000000000e+00  0.0000000000000000e+00  0.0000000000000000e+00  0.0000000000000000e+00  0.0000000000000000e+00  0.0000000000000000e+00  0.0000000000000000e+00  0.0000000000000000e+00  0.0000000000000000e+00  0.0000000000000000e+00  0.0000000000000000e+00  0.0000000000000000e+00  0.0000000000000000e+00  0.0000000000000000e+00  0.0000000000000000e+00  0.0000000000000000e+00  0.0000000000000000e+00  0.0000000000000000e+00  0.0000000000000000e+00  0.0000000000000000e+00  0.0000000000000000e+00  0.0000000000000000e+00  0.0000000000000000e+00  0.0000000000000000e+00  0.0000000000000000e+00  0.0000000000000000e+00  0.0000000000000000e+00  0.0000000000000000e+00  0.0000000000000000e+00  0.0000000000000000e+00  0.0000000000000000e+00  0.0000000000000000e+00  0.0000000000000000e+00  0.0000000000000000e+00  0.0000000000000000e+00  0.0000000000000000e+00  0.0000000000000000e+00  0.0000000000000000e+00  0.0000000000000000e+00  0.0000000000000000e+00  0.0000000000000000e+00  0.0000000000000000e+00  0.0000000000000000e+00  0.0000000000000000e+00  0.0000000000000000e+00  0.0000000000000000e+00  0.0000000000000000e+00  0.0000000000000000e+00  0.0000000000000000e+00  0.0000000000000000e+00  0.0000000000000000e+00  0.0000000000000000e+00  0.0000000000000000e+00  0.0000000000000000e+00  0.0000000000000000e+00  0.0000000000000000e+00  0.0000000000000000e+00  0.0000000000000000e+00  0.0000000000000000e+00  0.0000000000000000e+00  0.0000000000000000e+00  0.0000000000000000e+00  0.0000000000000000e+00  0.0000000000000000e+00  0.0000000000000000e+00  0.0000000000000000e+00  0.0000000000000000e+00  0.0000000000000000e+00  0.0000000000000000e+00  0.0000000000000000e+00  0.0000000000000000e+00  0.0000000000000000e+00  0.0000000000000000e+00  0.0000000000000000e+00  0.0000000000000000e+00  0.0000000000000000e+00  0.0000000000000000e+00  0.0000000000000000e+00  0.0000000000000000e+00  0.0000000000000000e+00  0.0000000000000000e+00  0.0000000000000000e+00  0.0000000000000000e+00  0.0000000000000000e+00  0.0000000000000000e+00  0.0000000000000000e+00  0.0000000000000000e+00  0.0000000000000000e+00  0.0000000000000000e+00  0.0000000000000000e+00  0.0000000000000000e+00  0.0000000000000000e+00  0.0000000000000000e+00  0.0000000000000000e+00  0.0000000000000000e+00  0.0000000000000000e+00  0.0000000000000000e+00  0.0000000000000000e+00  0.0000000000000000e+00  0.0000000000000000e+00  0.0000000000000000e+00  0.0000000000000000e+00  0.0000000000000000e+00  0.0000000000000000e+00  0.0000000000000000e+00  0.0000000000000000e+00  0.0000000000000000e+00  0.0000000000000000e+00  0.0000000000000000e+00  0.0000000000000000e+00  0.0000000000000000e+00  0.0000000000000000e+00  0.0000000000000000e+00  0.0000000000000000e+00  0.0000000000000000e+00  0.0000000000000000e+00  0.0000000000000000e+00  0.0000000000000000e+00  0.0000000000000000e+00  0.0000000000000000e+00  0.0000000000000000e+00  0.0000000000000000e+00  0.0000000000000000e+00  0.0000000000000000e+00  0.0000000000000000e+00  0.0000000000000000e+00  0.0000000000000000e+00  0.0000000000000000e+00  0.0000000000000000e+00  0.0000000000000000e+00  0.0000000000000000e+00  0.0000000000000000e+00  0.0000000000000000e+00  0.0000000000000000e+00  0.0000000000000000e+00  0.0000000000000000e+00  0.0000000000000000e+00  0.0000000000000000e+00  0.0000000000000000e+00  0.0000000000000000e+00  0.0000000000000000e+00  0.0000000000000000e+00  0.0000000000000000e+00  0.0000000000000000e+00  0.0000000000000000e+00  0.0000000000000000e+00  0.0000000000000000e+00  0.0000000000000000e+00  0.0000000000000000e+00  0.0000000000000000e+00  0.0000000000000000e+00  0.0000000000000000e+00  0.0000000000000000e+00  0.0000000000000000e+00  0.0000000000000000e+00  0.0000000000000000e+00  0.0000000000000000e+00  0.0000000000000000e+00  0.0000000000000000e+00  0.0000000000000000e+00  0.0000000000000000e+00  0.0000000000000000e+00  0.0000000000000000e+00  0.0000000000000000e+00  0.0000000000000000e+00  0.0000000000000000e+00  0.0000000000000000e+00  0.0000000000000000e+00  0.0000000000000000e+00  0.0000000000000000e+00  0.0000000000000000e+00  0.0000000000000000e+00  0.0000000000000000e+00  0.0000000000000000e+00  0.0000000000000000e+00  0.0000000000000000e+00  0.0000000000000000e+00  0.0000000000000000e+00  0.0000000000000000e+00  0.0000000000000000e+00  0.0000000000000000e+00  0.0000000000000000e+00  0.0000000000000000e+00  0.0000000000000000e+00  0.0000000000000000e+00  0.0000000000000000e+00  0.0000000000000000e+00  0.0000000000000000e+00  0.0000000000000000e+00  0.0000000000000000e+00  0.0000000000000000e+00  0.0000000000000000e+00  0.0000000000000000e+00  0.0000000000000000e+00  0.0000000000000000e+00  0.0000000000000000e+00  0.0000000000000000e+00  0.0000000000000000e+00  0.0000000000000000e+00  0.0000000000000000e+00  0.0000000000000000e+00  0.0000000000000000e+00  0.0000000000000000e+00  0.0000000000000000e+00  0.0000000000000000e+00  0.0000000000000000e+00  0.0000000000000000e+00  0.0000000000000000e+00  0.0000000000000000e+00  0.0000000000000000e+00  0.0000000000000000e+00  0.0000000000000000e+00  0.0000000000000000e+00  0.0000000000000000e+00  0.0000000000000000e+00  0.0000000000000000e+00  0.0000000000000000e+00  0.0000000000000000e+00  0.0000000000000000e+00  0.0000000000000000e+00  0.0000000000000000e+00  0.0000000000000000e+00  0.0000000000000000e+00  0.0000000000000000e+00  0.0000000000000000e+00  0.0000000000000000e+00  0.0000000000000000e+00  0.0000000000000000e+00  0.0000000000000000e+00  0.0000000000000000e+00  0.0000000000000000e+00  0.0000000000000000e+00  0.0000000000000000e+00  0.0000000000000000e+00  0.0000000000000000e+00  0.0000000000000000e+00  0.0000000000000000e+00  0.0000000000000000e+00  0.0000000000000000e+00  0.0000000000000000e+00  0.0000000000000000e+00  0.0000000000000000e+00  0.0000000000000000e+00  0.0000000000000000e+00  0.0000000000000000e+00  0.0000000000000000e+00  0.0000000000000000e+00  0.0000000000000000e+00  0.0000000000000000e+00  0.0000000000000000e+00  0.0000000000000000e+00  0.0000000000000000e+00  0.0000000000000000e+00  0.0000000000000000e+00  0.0000000000000000e+00  0.0000000000000000e+00  0.0000000000000000e+00  0.0000000000000000e+00  0.0000000000000000e+00  0.0000000000000000e+00  0.0000000000000000e+00  0.0000000000000000e+00  0.0000000000000000e+00  0.0000000000000000e+00  0.0000000000000000e+00  0.0000000000000000e+00  0.0000000000000000e+00  0.0000000000000000e+00  0.0000000000000000e+00  0.0000000000000000e+00  0.0000000000000000e+00  0.0000000000000000e+00  0.0000000000000000e+00  0.0000000000000000e+00  0.0000000000000000e+00  0.0000000000000000e+00  0.0000000000000000e+00  0.0000000000000000e+00  0.0000000000000000e+00  0.0000000000000000e+00  0.0000000000000000e+00  0.0000000000000000e+00  0.0000000000000000e+00  0.0000000000000000e+00  0.0000000000000000e+00  0.0000000000000000e+00  0.0000000000000000e+00  0.0000000000000000e+00  0.0000000000000000e+00  0.0000000000000000e+00  0.0000000000000000e+00  -1.0853475748262134e+85  3.4453433615311969e+80  -3.2118110929564852e+81  8.6698143823845930e+81  -7.6032009769969523e+80  6.9374432207369712e+80  -5.2519572620909902e+78  2.6135322269958490e+76  -1.0930104747923837e+77  -9.5008341145365254e+75  -5.5770265867988782e+76  -1.7264680487974331e+85  2.4691693093992055e+76  -1.6940055924670553e+75  -3.3677176931843845e+85  4.2347384123717400e+85  -1.9376553535361097e+75  -3.6752742052173973e+74  4.6233337393323209e+73  -7.3175660232802278e+74  6.9760125720338789e+73  -5.2394613722248701e+74  -3.2751268200587228e+72  -7.1400946338490667e+82  -1.5167976693529788e+85  2.4471219773652880e+84  -2.7093382213115128e+75  1.1471278955206145e+72  -1.9501947420719541e+74  2.0836344405944596e+81  -1.7693350988431279e+72  -3.7101391819253839e+84  -4.4754387103504289e+85  6.2329840801192302e+83  -2.6124514013226159e+74  2.2908964722111355e+72  4.1817767727420953e+71  4.5594482497766128e+72  9.3847747512980237e+71  3.1804950166169557e+80  -3.7440069795388632e+81  -1.0714634669048756e+78  -1.9217499182398220e+79  -9.4752242635444431e+84  -5.3119736140419287e+71  6.3560356516815374e+71  -5.6279829991240634e+71  -3.8175909319167256e+71  1.5561844461713273e+79  -8.3759174866250397e+77  -2.3148069671903537e+77  3.2568402612351100e+78  2.8364411116119021e+79  -2.1697449085741034e+82  1.3297118451867970e+73  -1.0476503055880468e+85  1.4834942264169422e+71  2.1445730769402049e+71  6.4083577435492215e+81  -5.6186890479789302e+71  3.4829743134541518e+71  -3.3860753089191957e+76  6.1124413124295727e+71  -1.2790233344988198e+71  -4.4247986808311025e+84  7.6623530659919026e+85  6.3465404898708772e+85  1.7931630251153189e+81  1.0601062836869769e+85  -1.8857065073232527e+82  4.2332310309848266e+84  -3.6006009876342469e+79  2.9557632954299200e+78  1.4310195605415837e+78  -4.9734561620123484e+77  3.0450268916617340e+83  -1.0294859849536010e+71  6.9802004750407455e+81  -7.4816446303582758e+83  2.4045278466010732e+77  -1.2561164725618774e+71  -3.8333642464322402e+82  -5.3917299072358423e+70  1.6950623771930758e+71  -2.0553843766264947e+70  -1.3669091260093470e+87  5.2269006052146078e+71  9.3297169146823243e+69  -6.6038813872153056e+70  -2.0678419870241691e+83  5.6453010539704707e+75  2.9557672701217310e+71  -8.3323727587799470e+76  6.1665139084939367e+69  3.5718943304290887e+76  2.5994895350766605e+87  5.2414550842079739e+69  -2.0606629969105949e+71  -6.2744206133110180e+75  4.0348807661536091e+74  4.0905804039350422e+77  3.8371509108390230e+76  1.1343929279715320e+71  2.1150409399884995e+82  -1.0798737105187109e+80  8.2391400434954429e+79  2.3590452685897417e+82  3.6916624319733965e+76  -1.4240720539785693e+76  -7.9545272203563018e+69  5.1713406648128731e+81  -3.7542997964494973e+70  -8.7217364154560119e+69  -1.4217227745495545e+79  -4.5277154107847467e+78  5.2855777754774459e+72  -1.1242408844139047e+70  -6.2650111147838211e+69  -1.1691459433532788e+69  9.4830905320838145e+85  1.2438859721551931e+83  2.9306070616164314e+73  6.7994363006154393e+86  -2.1575480928734964e+71  -1.1160056923002607e+75  -1.8865072847338761e+76  7.8284319725231755e+69  -1.2474262853900722e+68  1.3384007008212903e+74  1.3400883204208516e+75  2.5567434583531532e+76  3.6806578568270068e+75  -1.2138292552098719e+79  -3.0390523583941164e+81  -4.9039705862825740e+77  -4.4792813623795116e+75  1.1357456668811722e+71  7.3046606456592766e+88  3.2274357615753079e+83  -4.0879472150592064e+84  3.2751541468947521e+84  -2.5118053947928766e+88  -6.7173465560685457e+73  1.2065625673979739e+84  -9.8401368763959511e+78  -5.8131403015478046e+73  -4.3071548979122877e+72  -4.0921590275741146e+84  1.6391177782693546e+87  8.0120093381140714e+75  4.0736184588114143e+69  1.1282445797560150e+79  -3.3382344823617650e+84  3.3691100640148362e+73  1.1265693725660214e+73  -3.5864994528985621e+71  -7.3301421392881620e+68  4.1840572863287199e+74  6.6164081254478151e+69  -7.6428175766855488e+67  -5.3579410584827479e+68  9.8346696753730335e+72  -4.9748261414759200e+76  -7.9277856905354837e+69  -1.4098571300659418e+73  8.8568649529039745e+78  -5.8959730730835852e+74  -3.1394908371795139e+71  1.0381318435469700e+69  -1.1158312436872102e+73  -1.0021369122123153e+80  7.1868179351728178e+84  9.0413604514536081e+72  9.4298538203003747e+83  5.7458843471753371e+68  7.2047652881086689e+80  6.9329635643110193e+69  -1.5544668357578267e+73  -6.6903228220718346e+69  -1.9359665705654483e+80  -8.4588849084329645e+72  -8.3743796367209271e+81  -5.6057666480406328e+77  7.5177578061804894e+86  2.4356597420442921e+68  4.5541253976602064e+78  -2.8790448680276956e+77  -3.7403122340444901e+81  3.1040116765946537e+69  1.3834148039494190e+71  2.8612709049327488e+69  -7.0755126084562519e+85  -4.8321023783448674e+69  -8.1875790423727636e+68  5.7249368701836290e+81  -6.8653284350947297e+84  2.1430329216885145e+73  2.1975070995646646e+74  6.8256978905741913e+79  -1.1590215906293503e+76  4.7437541892720599e+78  -1.4942232557231219e+79  1.8569315588474940e+79  9.1794341857577174e+74  -3.2601031316707641e+77  7.0418127619941822e+73  -1.4254145928208602e+73  1.8585709134344350e+85  -3.7408004403973628e+70  -8.5126727154227043e+73  -1.2259990110649768e+74  -4.2448099852615473e+85  6.9479508116143111e+83  -3.5352965015008296e+70  1.0594128258433775e+69  -2.7775965071678706e+74  -1.5212530838214013e+83  4.2624090535508854e+69  9.3374903614233402e+76  1.0674078802922795e+77  -1.0081506152309397e+72  -4.2219049547458583e+76  3.6840370978889315e+82  -1.1637167406219946e+78  -1.3833958292050869e+77  6.4111021891522014e+68  8.6094898147696533e+74  -3.1649048013958017e+67  1.7224575208559232e+76  7.5595933675114766e+68  5.0659733264694316e+69  2.9424095792319535e+69  -2.4232347642232180e+68  -1.9151561177501769e+71  2.1396914476650738e+68  1.4361362891876765e+80  6.0249521497566648e+77  1.1542391069403791e+73  3.4948847098530950e+72  7.8890163249008669e+83  1.4119911050156521e+84  -1.1145833068859150e+78  -1.5207599436435291e+78  1.5179234176512407e+69  -2.3365502366973247e+81  -1.4306139412178026e+70  -6.9102409054347040e+68  2.4632110740054293e+68  -4.2735988229022379e+82  2.4619709332605065e+79  1.1450180613746639e+79  -9.3383189122963028e+78  -1.5287672007254837e+86  6.6583730177888216e+85  3.5075426157400144e+70  8.8613398946666433e+83  9.2652531187104507e+74  3.8477805505475024e+80  2.0566990189914797e+69  3.2746094996918307e+68  3.0652972736124694e+69  1.8326660167314175e+76  -5.4260586968505314e+71  9.1298763341079580e+79  2.3600375113578072e+82  3.1461147934045056e+81  -2.2001814164456448e+72  -9.4191652293600130e+69  -3.7752335349808685e+69  3.7165306740247520e+78  1.5567388225294682e+67  6.3190381992561986e+84  -5.1634807985908050e+82  1.4230756736647483e+75  -1.4734196615839397e+73  -1.3133532506825019e+74  8.3885126581996571e+84  -1.4369011793439517e+84  -1.0914714971424803e+82  -5.7902854773760138e+81  1.2688086277571643e+84  -1.5333009580186092e+84  6.1604606915589286e+86  3.1333606783694433e+77  2.8012936055875492e+76  -5.7554145580091909e+73  -2.3197292380114324e+87  7.9354574162485131e+69  -1.2585173973722693e+72  -2.1814019250123918e+83  5.9085709304796627e+85  3.3773163376014732e+82  -1.5335195007184908e+78  8.1894677528194889e+78  -2.9065429270933721e+87  -8.7766108384539030e+69  6.9932483488907022e+81  6.8892574497588595e+68  3.9482280900745436e+68  3.6440253130776755e+68  -8.9321652677975374e+83  -1.7862636400547871e+84  -3.7480927915053311e+85  -1.0436361966558209e+86  2.3872711142576102e+77  -3.8214410123619624e+76  -2.4869033203010858e+75  -9.3026513493522367e+77  -1.8147326906226797e+78  -1.9139991159460314e+77  -3.9973149482407924e+81  2.3104432457686914e+78  3.3423315053460518e+84  8.5773255969741103e+72  -1.3018589944481977e+85  2.7881853707535286e+84  1.2147687017137798e+78  -4.5647053509427088e+74  2.3496503178888614e+75  7.7738345255724625e+67  -7.8970511928034625e+73  -6.7346517055128529e+73  -2.3744952434671545e+69  1.4923435893766385e+84  -4.9002181350798128e+68  7.8101860470781539e+68  -3.0038615421934301e+70  -2.6459471698162830e+83  5.2130142671933906e+82  3.7853447814212603e+85  1.9677965678592097e+68  -7.0733768324567483e+74  7.1356154812482399e+76  7.2451000715182397e+81  -1.7358889114026247e+81  -1.3713206602186395e+75  3.5359950221945133e+81  -4.3876030620587782e+83  -1.9670225565169262e+88  -3.3664955666753191e+75  -5.7189493485650800e+72  9.3044601705540984e+79  6.9036892299870526e+70  1.0058214543449095e+70  1.3233747628447586e+76  1.7126915735088327e+68  2.3806331748184074e+73  -1.3053357889391348e+74  -1.5166119174367175e+68  8.8412330617863539e+75  -1.5256449078105027e+77  -2.5395418580704811e+69  -4.2059359819105316e+71  -3.7505694343833192e+67  -1.3185922000452427e+73  -1.3759898462350916e+72  8.6310492594332956e+77  -1.5786719861160422e+86  3.0228865913411292e+69  1.1980799228794236e+85  -1.9085901971061188e+85  5.5169320585968375e+72  3.1169622626581953e+69  -3.1698276224617882e+78  4.7769825011949120e+71  -4.4420235488171475e+86  2.1388795504283418e+71  3.5017305291593752e+74  1.1382657970659366e+85  1.5227092491730996e+72  2.2339264048506401e+68  -7.9121608853243646e+68  -5.4430894932372167e+72  1.5108171203886767e+83  -3.4052874148328030e+81  -3.5792682853287828e+75  -1.8902601015590724e+70  8.8016588873318228e+85  -3.5887427421672898e+77  -6.4881600650505900e+68  3.2162240914560693e+80  -6.3242600915129839e+68  -1.1698184235237118e+71  1.5755614219498529e+80  1.1476944569680577e+69  -3.3807445985072428e+87  2.2256284771719665e+69  -4.0539625832920114e+72  -1.9692951337508411e+67  -8.2516724560555680e+81  1.0230176970428036e+78  2.8308806045744962e+74  9.3493108945466554e+79  3.9602273481035267e+67  -7.8377484664018970e+72  -1.6724883681658141e+82  -3.8530974824436782e+69  4.8218706175830786e+79  1.0575449326673092e+75  9.1866296125687768e+67  9.7296360395800235e+66  -4.7127656043689662e+80  -7.4866109525192096e+70  1.1734605472316854e+82  1.7420593482746105e+74  3.9782453978827123e+81  8.8688436971998837e+77  -1.3291441453457560e+68  -6.6453532853313273e+71  -4.7971102648543997e+72  -5.3013949418408417e+71  8.2464414619249756e+70  -5.5022394309048935e+83  4.6358172354367322e+84  -1.1912286622663514e+88  -5.9773703718244390e+83  4.4850944843395356e+72  -2.2855284387613841e+86  1.6207119063175052e+83  -5.1894010789976306e+71  -1.5363932538458238e+67  -2.3346455757544241e+68  1.7935276809720120e+77  4.7618328725667377e+76  -1.1147277742547022e+74  2.6652399479136831e+83  5.7528417950120763e+75  6.2232974548431927e+68  -5.8544473704556325e+67  1.1415171488639898e+68  -2.0543286571155135e+77  5.9410096104325016e+71  6.5884328175675955e+73  -1.9827969876290972e+71  4.3737512694185428e+70  -1.0704521308921117e+71  -4.4948998719539206e+77  -2.2349519177029775e+70  -4.4781490508147377e+79  2.4761625924182726e+79  -6.7570878373354940e+79  1.0788299656662695e+78  5.7463722724796103e+79  -7.6806707374594356e+81  -3.5360586901617001e+71  2.8318361511760037e+82  -9.2238565273151363e+72  -4.6029067919898950e+86  -4.1224666941703200e+76  -6.8466833414021496e+81  -1.8965490977998985e+79  1.8861918045185199e+86  -1.7479844984622309e+72  1.2396571581978134e+68  -5.9161835207840026e+68  2.1128820399620971e+85  -4.8686281624930962e+75  2.1278755737360463e+80  3.2136966567591981e+80  -6.7180603322700534e+70  1.5633033864834710e+78  1.8101126272965904e+68  3.9120642398893404e+86  5.9751893347253496e+86  9.5838499134921812e+82  -1.6353736424990286e+74  1.7583236253802201e+72  -1.4661062685287173e+72  -5.4378779532884958e+75  1.8605721345767363e+76  -4.2980264950404069e+79  -2.9887400738414920e+70  -5.3499313197287483e+81  -4.3478728860103645e+79  -5.9019579882185066e+73  4.8762629906081024e+86  -1.7126590707065325e+74  1.4552756348192607e+80  1.2502828101108017e+76  1.0767520229263333e+78  1.3335235734380199e+76  -4.6983190512057582e+72  8.4864564206593039e+67  1.9298880681432694e+71  -4.5850381488249995e+67  -3.2824077845196135e+70  7.6849466233870647e+68  2.0258250906424515e+83  -8.3732617028053521e+72  2.9302304649574402e+77  5.7363392652883308e+73  1.7952086481923174e+82  1.5532113651205757e+80  -2.6481465481738871e+85  -7.8497991964429898e+68  -5.1016205325113755e+83  -1.0637565130275028e+68  -3.2098599315439783e+67  1.4337686242211509e+69  -2.3026612507259002e+79  -2.1530484664775530e+70  -4.5532311642692300e+69  1.4903136703926247e+80  1.1574471660161292e+80  -2.45456487121