<?xml version="1.0"?>
<VTKFile type="UnstructuredGrid"  version="0.1"  >
<UnstructuredGrid>
<Piece  NumberOfPoints="20054" NumberOfCells="39478">
<Points>
<DataArray  type="Float64"  NumberOfComponents="3"  format="ascii">1 0 0  0.9997998037428526 0.02000880895389431 0  0.9991992951284931 0.04000960653046352 0  0.9981987145960756 0.05999438456007805 0  0.9967984627705549 0.07995514128721501 0  0.9949991003022806 0.09988388457430118 0  0.9928013476425149 0.1197726351017051 0  0.9902060847549715 0.139613429562597 0  0.987214350763483 0.1593983238513969 0  0.9838273435359444 0.1791193962445356 0  0.9800464192046954 0.198768750572253 0  0.9758730916235354 0.2183385193801655 0  0.9713090317615876 0.237820867079336 0  0.9663560670342555 0.2572079930835849 0  0.9610161805715396 0.2764921349327862 0  0.9552915104240066 0.2956655714008991 0  0.9491843487067304 0.3147206255874884 0  0.9426971406815462 0.3336496679914983 0  0.9358324837779861 0.3524451195660473 0  0.9285931265532873 0.3710994547530225 0  0.9209819675918909 0.3896052044962556 0  0.9130020543448703 0.4079549592320781 0  0.9046565819097542 0.4261413718560547 0  0.8959488917512338 0.4441571606647087 0  0.8868824703632656 0.4619951122710622 0  0.8774609478731046 0.4796480844928215 0  0.8676880965878291 0.4971090092120542 0  0.8575678294839372 0.5143708952052096 0  0.8471041986406199 0.5314268309423539 0  0.8363013936173391 0.5482699873544935 0  0.8251637397763597 0.5648936205678837 0  0.8136956965509062 0.5812910746042258 0  0.8019018556596399 0.5974557840456699 0  0.7897869392681683 0.6133812766635599 0  0.777355798098326 0.6290611760098652 0  0.7646134094859813 0.6444892039702628 0  0.7515648753881492 0.6596591832778468 0  0.7382154203402046 0.6745650399864606 0  0.7245703893640189 0.6892008059026586 0  0.7106352458278521 0.7035606209753273 0  0.6964155692588616 0.7176387356420051 0  0.6819170531091018 0.7314295131309636 0  0.6671455024759069 0.7449274317181303 0  0.6521068317775753 0.7581270869379442 0  0.6368070623852795 0.7710231937472638 0  0.6212523202121545 0.7836105886414595 0  0.6054488332605282 0.795884231721841 0  0.5894029291282759 0.8078392087135958 0  0.5731210324752972 0.8194707329334278 0  0.5566096624511305 0.8307741472061095 0  0.5398754300847343 0.8417449257291802 0  0.5229250356374803 0.8523786758850435 0  0.5057652659204196 0.8626711399997378 0  0.4884029915768944 0.8726181970476778 0  0.4708451643315825 0.8822158643016828 0  0.45309881420708 0.8914602989276292 0  0.4351710467091336 0.9003477995230937 0  0.4170690399816468 0.9088748075993677 0  0.398800041932607 0.9170379090062476 0  0.3803713673320772 0.9248338352990368 0  0.3617903948834157 0.9322594650472057 0  0.3430645642688987 0.9393118250841893 0  0.3242013731709288 0.9459880916978206 0  0.3052083742700172 0.952285591760924 0  0.2860931722207478 0.9582018038016155 0  0.2668634206069304 0.963734359012881 0  0.2475268188771628 0.9688810422010291 0  0.2280911092620296 0.9736397926726377 0  0.2085640736741707 0.9780087050596407 0  0.1889535305924618 0.9819860300822225 0  0.1692673319315541 0.9855701752492174 0  0.1495133598980264 0.9887597054957302 0  0.1296995238344084 0.9915533437577263 0  0.1098337570523395 0.9939499714833577 0  0.08992401365612977 0.9959486290808237 0  0.06997826535799723 0.9975485163025836 0  0.05000449828625179 0.9987489925657699 0  0.03001070978771124 0.9995495772086734 0  0.01000490522562346 0.9999499496831961 0  -0.01000490522562333 0.9999499496831961 0  -0.03001070978771133 0.9995495772086734 0  -0.05000449828625144 0.9987489925657699 0  -0.06997826535799688 0.9975485163025836 0  -0.08992401365612987 0.9959486290808237 0  -0.1098337570523394 0.9939499714833577 0  -0.1296995238344082 0.9915533437577263 0  -0.1495133598980262 0.9887597054957303 0  -0.1692673319315537 0.9855701752492174 0  -0.1889535305924614 0.9819860300822226 0  -0.2085640736741705 0.9780087050596407 0  -0.2280911092620295 0.9736397926726377 0  -0.2475268188771627 0.9688810422010291 0  -0.2668634206069302 0.9637343590128811 0  -0.2860931722207475 0.9582018038016156 0  -0.3052083742700173 0.9522855917609239 0  -0.3242013731709289 0.9459880916978205 0  -0.3430645642688986 0.9393118250841894 0  -0.3617903948834154 0.9322594650472058 0  -0.380371367332077 0.924833835299037 0  -0.3988000419326071 0.9170379090062476 0  -0.4170690399816465 0.9088748075993678 0  -0.4351710467091335 0.9003477995230939 0  -0.4530988142070799 0.8914602989276292 0  -0.4708451643315824 0.8822158643016829 0  -0.4884029915768945 0.8726181970476778 0  -0.5057652659204197 0.8626711399997378 0  -0.5229250356374801 0.8523786758850437 0  -0.5398754300847342 0.8417449257291804 0  -0.5566096624511303 0.8307741472061098 0  -0.5731210324752971 0.8194707329334279 0  -0.589402929128276 0.8078392087135957 0  -0.6054488332605281 0.7958842317218411 0  -0.6212523202121542 0.7836105886414597 0  -0.6368070623852793 0.7710231937472639 0  -0.652106831777575 0.7581270869379444 0  -0.6671455024759069 0.7449274317181304 0  -0.6819170531091018 0.7314295131309636 0  -0.6964155692588616 0.7176387356420052 0  -0.7106352458278521 0.7035606209753273 0  -0.7245703893640187 0.6892008059026588 0  -0.7382154203402043 0.6745650399864608 0  -0.751564875388149 0.6596591832778469 0  -0.7646134094859813 0.6444892039702628 0  -0.7773557980983258 0.6290611760098654 0  -0.7897869392681683 0.6133812766635599 0  -0.8019018556596398 0.59745578404567 0  -0.8136956965509062 0.5812910746042258 0  -0.8251637397763595 0.5648936205678839 0  -0.836301393617339 0.5482699873544935 0  -0.8471041986406197 0.5314268309423542 0  -0.8575678294839372 0.5143708952052097 0  -0.8676880965878292 0.497109009212054 0  -0.8774609478731045 0.4796480844928216 0  -0.8868824703632656 0.4619951122710621 0  -0.8959488917512338 0.4441571606647088 0  -0.904656581909754 0.426141371856055 0  -0.9130020543448703 0.4079549592320783 0  -0.920981967591891 0.3896052044962555 0  -0.9285931265532872 0.3710994547530226 0  -0.9358324837779861 0.3524451195660473 0  -0.9426971406815462 0.3336496679914984 0  -0.9491843487067303 0.3147206255874888 0  -0.9552915104240065 0.2956655714008993 0  -0.9610161805715396 0.2764921349327862 0  -0.9663560670342555 0.2572079930835851 0  -0.9713090317615876 0.2378208670793361 0  -0.9758730916235353 0.2183385193801658 0  -0.9800464192046954 0.198768750572253 0  -0.9838273435359444 0.1791193962445354 0  -0.987214350763483 0.159398323851397 0  -0.9902060847549714 0.1396134295625972 0  -0.9928013476425149 0.1197726351017052 0  -0.9949991003022804 0.09988388457430147 0  -0.9967984627705549 0.07995514128721509 0  -0.9981987145960756 0.05999438456007793 0  -0.9991992951284931 0.04000960653046362 0  -0.9997998037428526 0.02000880895389464 0  -1 1.224646799147353e-16 0  -0.9997998037428526 -0.0200088089538944 0  -0.9991992951284931 -0.04000960653046338 0  -0.9981987145960756 -0.05999438456007812 0  -0.9967984627705549 -0.07995514128721484 0  -0.9949991003022806 -0.09988388457430078 0  -0.9928013476425149 -0.1197726351017049 0  -0.9902060847549715 -0.1396134295625965 0  -0.9872143507634831 -0.1593983238513963 0  -0.9838273435359444 -0.1791193962445356 0  -0.9800464192046953 -0.1987687505722532 0  -0.9758730916235354 -0.2183385193801655 0  -0.9713090317615876 -0.2378208670793363 0  -0.9663560670342556 -0.2572079930835848 0  -0.9610161805715396 -0.276492134932786 0  -0.9552915104240066 -0.2956655714008991 0  -0.9491843487067305 -0.3147206255874881 0  -0.9426971406815464 -0.3336496679914978 0  -0.9358324837779862 -0.3524451195660471 0  -0.9285931265532875 -0.371099454753022 0  -0.9209819675918909 -0.3896052044962557 0  -0.9130020543448704 -0.407954959232078 0  -0.9046565819097541 -0.4261413718560548 0  -0.8959488917512338 -0.4441571606647086 0  -0.8868824703632655 -0.4619951122710623 0  -0.8774609478731046 -0.4796480844928214 0  -0.8676880965878293 -0.4971090092120538 0  -0.8575678294839373 -0.5143708952052095 0  -0.84710419864062 -0.5314268309423537 0  -0.8363013936173395 -0.5482699873544929 0  -0.8251637397763596 -0.5648936205678838 0  -0.8136956965509061 -0.5812910746042259 0  -0.8019018556596399 -0.5974557840456699 0  -0.7897869392681682 -0.61338127666356 0  -0.777355798098326 -0.6290611760098652 0  -0.7646134094859816 -0.6444892039702625 0  -0.7515648753881492 -0.6596591832778468 0  -0.7382154203402048 -0.6745650399864603 0  -0.7245703893640192 -0.6892008059026583 0  -0.7106352458278522 -0.7035606209753272 0  -0.6964155692588621 -0.7176387356420046 0  -0.6819170531091017 -0.7314295131309637 0  -0.667145502475907 -0.7449274317181303 0  -0.6521068317775756 -0.758127086937944 0  -0.6368070623852792 -0.7710231937472641 0  -0.6212523202121544 -0.7836105886414596 0  -0.6054488332605283 -0.795884231721841 0  -0.5894029291282762 -0.8078392087135956 0  -0.5731210324752977 -0.8194707329334274 0  -0.5566096624511304 -0.8307741472061095 0  -0.5398754300847344 -0.8417449257291802 0  -0.5229250356374798 -0.8523786758850437 0  -0.5057652659204195 -0.8626711399997379 0  -0.4884029915768943 -0.872618197047678 0  -0.4708451643315825 -0.8822158643016828 0  -0.4530988142070805 -0.8914602989276289 0  -0.4351710467091333 -0.900347799523094 0  -0.4170690399816467 -0.9088748075993677 0  -0.3988000419326073 -0.9170379090062475 0  -0.3803713673320777 -0.9248338352990366 0  -0.3617903948834162 -0.9322594650472055 0  -0.3430645642688988 -0.9393118250841893 0  -0.3242013731709283 -0.9459880916978207 0  -0.3052083742700169 -0.9522855917609241 0  -0.2860931722207477 -0.9582018038016155 0  -0.2668634206069305 -0.963734359012881 0  -0.2475268188771631 -0.968881042201029 0  -0.2280911092620301 -0.9736397926726376 0  -0.2085640736741706 -0.9780087050596407 0  -0.1889535305924619 -0.9819860300822225 0  -0.1692673319315544 -0.9855701752492173 0  -0.1495133598980269 -0.9887597054957302 0  -0.1296995238344092 -0.9915533437577262 0  -0.1098337570523396 -0.9939499714833577 0  -0.08992401365612945 -0.9959486290808237 0  -0.06997826535799691 -0.9975485163025836 0  -0.05000449828625168 -0.9987489925657699 0  -0.030010709787
[...]
<PointData  Scalars="Displacement"> 
<DataArray  type="Float64"  Name="Displacement"  format="ascii">0.0000000000000000e+00  0.0000000000000000e+00  0.0000000000000000e+00  0.0000000000000000e+00  0.0000000000000000e+00  0.0000000000000000e+00  0.0000000000000000e+00  0.0000000000000000e+00  0.0000000000000000e+00  0.0000000000000000e+00  0.0000000000000000e+00  0.0000000000000000e+00  0.0000000000000000e+00  0.0000000000000000e+00  0.0000000000000000e+00  0.0000000000000000e+00  0.0000000000000000e+00  0.0000000000000000e+00  0.0000000000000000e+00  0.0000000000000000e+00  0.0000000000000000e+00  0.0000000000000000e+00  0.0000000000000000e+00  0.0000000000000000e+00  0.0000000000000000e+00  0.0000000000000000e+00  0.0000000000000000e+00  0.0000000000000000e+00  0.0000000000000000e+00  0.0000000000000000e+00  0.0000000000000000e+00  0.0000000000000000e+00  0.0000000000000000e+00  0.0000000000000000e+00  0.0000000000000000e+00  0.0000000000000000e+00  0.0000000000000000e+00  0.0000000000000000e+00  0.0000000000000000e+00  0.0000000000000000e+00  0.0000000000000000e+00  0.0000000000000000e+00  0.0000000000000000e+00  0.0000000000000000e+00  0.0000000000000000e+00  0.0000000000000000e+00  0.0000000000000000e+00  0.0000000000000000e+00  0.0000000000000000e+00  0.0000000000000000e+00  0.0000000000000000e+00  0.0000000000000000e+00  0.0000000000000000e+00  0.0000000000000000e+00  0.0000000000000000e+00  0.0000000000000000e+00  0.0000000000000000e+00  0.0000000000000000e+00  0.0000000000000000e+00  0.0000000000000000e+00  0.0000000000000000e+00  0.0000000000000000e+00  0.0000000000000000e+00  0.0000000000000000e+00  0.0000000000000000e+00  0.0000000000000000e+00  0.0000000000000000e+00  0.0000000000000000e+00  0.0000000000000000e+00  0.0000000000000000e+00  0.0000000000000000e+00  0.0000000000000000e+00  0.0000000000000000e+00  0.0000000000000000e+00  0.0000000000000000e+00  0.0000000000000000e+00  0.0000000000000000e+00  0.0000000000000000e+00  0.0000000000000000e+00  0.0000000000000000e+00  0.0000000000000000e+00  0.0000000000000000e+00  0.0000000000000000e+00  0.0000000000000000e+00  0.0000000000000000e+00  0.0000000000000000e+00  0.0000000000000000e+00  0.0000000000000000e+00  0.0000000000000000e+00  0.0000000000000000e+00  0.0000000000000000e+00  0.0000000000000000e+00  0.0000000000000000e+00  0.0000000000000000e+00  0.0000000000000000e+00  0.0000000000000000e+00  0.0000000000000000e+00  0.0000000000000000e+00  0.0000000000000000e+00  0.0000000000000000e+00  0.0000000000000000e+00  0.0000000000000000e+00  0.0000000000000000e+00  0.0000000000000000e+00  0.0000000000000000e+00  0.0000000000000000e+00  0.0000000000000000e+00  0.0000000000000000e+00  0.0000000000000000e+00  0.0000000000000000e+00  0.0000000000000000e+00  0.0000000000000000e+00  0.0000000000000000e+00  0.0000000000000000e+00  0.0000000000000000e+00  0.0000000000000000e+00  0.0000000000000000e+00  0.0000000000000000e+00  0.0000000000000000e+00  0.0000000000000000e+00  0.0000000000000000e+00  0.0000000000000000e+00  0.0000000000000000e+00  0.0000000000000000e+00  0.0000000000000000e+00  0.0000000000000000e+00  0.0000000000000000e+00  0.0000000000000000e+00  0.0000000000000000e+00  0.0000000000000000e+00  0.0000000000000000e+00  0.0000000000000000e+00  0.0000000000000000e+00  0.0000000000000000e+00  0.0000000000000000e+00  0.0000000000000000e+00  0.0000000000000000e+00  0.0000000000000000e+00  0.0000000000000000e+00  0.0000000000000000e+00  0.0000000000000000e+00  0.0000000000000000e+00  0.0000000000000000e+00  0.0000000000000000e+00  0.0000000000000000e+00  0.0000000000000000e+00  0.0000000000000000e+00  0.0000000000000000e+00  0.0000000000000000e+00  0.0000000000000000e+00  0.0000000000000000e+00  0.0000000000000000e+00  0.0000000000000000e+00  0.0000000000000000e+00  0.0000000000000000e+00  0.0000000000000000e+00  0.0000000000000000e+00  0.0000000000000000e+00  0.0000000000000000e+00  0.0000000000000000e+00  0.0000000000000000e+00  0.0000000000000000e+00  0.0000000000000000e+00  0.0000000000000000e+00  0.0000000000000000e+00  0.0000000000000000e+00  0.0000000000000000e+00  0.0000000000000000e+00  0.0000000000000000e+00  0.0000000000000000e+00  0.0000000000000000e+00  0.0000000000000000e+00  0.0000000000000000e+00  0.0000000000000000e+00  0.0000000000000000e+00  0.0000000000000000e+00  0.0000000000000000e+00  0.0000000000000000e+00  0.0000000000000000e+00  0.0000000000000000e+00  0.0000000000000000e+00  0.0000000000000000e+00  0.0000000000000000e+00  0.0000000000000000e+00  0.0000000000000000e+00  0.0000000000000000e+00  0.0000000000000000e+00  0.0000000000000000e+00  0.0000000000000000e+00  0.0000000000000000e+00  0.0000000000000000e+00  0.0000000000000000e+00  0.0000000000000000e+00  0.0000000000000000e+00  0.0000000000000000e+00  0.0000000000000000e+00  0.0000000000000000e+00  0.0000000000000000e+00  0.0000000000000000e+00  0.0000000000000000e+00  0.0000000000000000e+00  0.0000000000000000e+00  0.0000000000000000e+00  0.0000000000000000e+00  0.0000000000000000e+00  0.0000000000000000e+00  0.0000000000000000e+00  0.0000000000000000e+00  0.0000000000000000e+00  0.0000000000000000e+00  0.0000000000000000e+00  0.0000000000000000e+00  0.0000000000000000e+00  0.0000000000000000e+00  0.0000000000000000e+00  0.0000000000000000e+00  0.0000000000000000e+00  0.0000000000000000e+00  0.0000000000000000e+00  0.0000000000000000e+00  0.0000000000000000e+00  0.0000000000000000e+00  0.0000000000000000e+00  0.0000000000000000e+00  0.0000000000000000e+00  0.0000000000000000e+00  0.0000000000000000e+00  0.0000000000000000e+00  0.0000000000000000e+00  0.0000000000000000e+00  0.0000000000000000e+00  0.0000000000000000e+00  0.0000000000000000e+00  0.0000000000000000e+00  0.0000000000000000e+00  0.0000000000000000e+00  0.0000000000000000e+00  0.0000000000000000e+00  0.0000000000000000e+00  0.0000000000000000e+00  0.0000000000000000e+00  0.0000000000000000e+00  0.0000000000000000e+00  0.0000000000000000e+00  0.0000000000000000e+00  0.0000000000000000e+00  0.0000000000000000e+00  0.0000000000000000e+00  0.0000000000000000e+00  0.0000000000000000e+00  0.0000000000000000e+00  0.0000000000000000e+00  0.0000000000000000e+00  0.0000000000000000e+00  0.0000000000000000e+00  0.0000000000000000e+00  0.0000000000000000e+00  0.0000000000000000e+00  0.0000000000000000e+00  0.0000000000000000e+00  0.0000000000000000e+00  0.0000000000000000e+00  0.0000000000000000e+00  0.0000000000000000e+00  0.0000000000000000e+00  0.0000000000000000e+00  0.0000000000000000e+00  0.0000000000000000e+00  0.0000000000000000e+00  0.0000000000000000e+00  0.0000000000000000e+00  0.0000000000000000e+00  0.0000000000000000e+00  0.0000000000000000e+00  0.0000000000000000e+00  0.0000000000000000e+00  0.0000000000000000e+00  0.0000000000000000e+00  0.0000000000000000e+00  0.0000000000000000e+00  0.0000000000000000e+00  0.0000000000000000e+00  0.0000000000000000e+00  0.0000000000000000e+00  0.0000000000000000e+00  0.0000000000000000e+00  0.0000000000000000e+00  0.0000000000000000e+00  0.0000000000000000e+00  0.0000000000000000e+00  0.0000000000000000e+00  0.0000000000000000e+00  0.0000000000000000e+00  0.0000000000000000e+00  0.0000000000000000e+00  0.0000000000000000e+00  0.0000000000000000e+00  0.0000000000000000e+00  0.0000000000000000e+00  0.0000000000000000e+00  0.0000000000000000e+00  0.0000000000000000e+00  0.0000000000000000e+00  0.0000000000000000e+00  0.0000000000000000e+00  0.0000000000000000e+00  0.0000000000000000e+00  0.0000000000000000e+00  0.0000000000000000e+00  0.0000000000000000e+00  0.0000000000000000e+00  0.0000000000000000e+00  0.0000000000000000e+00  0.0000000000000000e+00  5.3351408472052221e+118  -5.8895685295202407e+113  6.7845858866182813e+114  1.2570839895622883e+115  4.1335016762571768e+114  3.0754855600832908e+114  1.7025341064715531e+112  -4.2633196895759780e+109  -2.3435869398674376e+110  2.0292592917021080e+109  8.1873248356827017e+108  4.7285201323694047e+118  2.0707414883769868e+110  4.5596032511497503e+108  -1.0024261877855356e+118  -2.2411998999815690e+117  -6.8012907073017143e+107  -7.0680448905100493e+106  -4.8408683435521733e+106  -3.6472117219494398e+108  -8.7484046734313883e+106  1.3599587683005412e+108  -7.0332585927919152e+105  2.8288724517097884e+115  1.0704213725937607e+118  6.9116314897466126e+117  2.3941429931627028e+108  1.7366497514757436e+106  -1.1677277337944514e+108  1.1302154500061212e+115  -4.6032891124372804e+105  -7.7195801197593703e+117  4.8991093153147725e+119  3.9482960912544963e+117  4.9527097096173596e+107  -2.9436895057500790e+105  -3.9044553545335577e+104  -4.2664049240794564e+105  3.2043678203347613e+106  -4.2351460273218804e+113  5.0899262101402612e+114  -3.6097672625431693e+110  1.0978912362646150e+112  -8.8251509523491901e+117  7.3199623548495163e+104  -1.3488901181435992e+105  1.4202998618376315e+102  3.6755924632233583e+104  -2.7565794661279792e+112  -1.9058615914912523e+111  -1.3819193181152141e+111  -7.6997411965970303e+111  5.5952646837759471e+109  1.2384980993090784e+115  2.3546078617842955e+107  -1.7786853306150077e+118  -2.9078609410486728e+105  5.6029788285676120e+105  -1.1575802837120410e+115  4.1105715586587619e+104  2.7805455753711384e+105  5.5943190997153884e+109  -1.3245164884533778e+105  3.1341211782664181e+104  -2.2910909139397863e+118  3.3342137442953193e+118  -1.1838571900476624e+119  -4.8536081443773909e+114  -1.5101712652002056e+118  -2.6600329518503957e+117  -5.4174254303847582e+117  7.2322860501919052e+112  4.2743626281551075e+112  -2.7763733013798830e+111  -4.2536677200542295e+110  1.0797752229393667e+116  -2.6728300996539133e+104  -1.3348713710790465e+115  3.1970486452033186e+117  -4.1379030693624886e+110  -8.0439005217993934e+104  -1.7240810078876029e+114  -6.0099162667720441e+104  -3.5163820694741222e+104  9.7657984053437315e+102  7.1766724103232875e+120  -3.4625132749771098e+105  3.2002914748620570e+103  9.0821608997794440e+103  2.5494316348727154e+117  -6.6330387000613248e+108  -2.7397315920453267e+104  2.8901426010193061e+110  9.9927857566293909e+102  -3.8688690193020358e+109  -4.8267748578806084e+120  -2.3389844841173653e+103  4.9669093981398847e+104  6.3897368969619747e+108  -1.7901992909435937e+107  -7.5174594767761035e+110  -2.1822370638426910e+109  -7.8897448929037268e+103  -4.0831293703030865e+115  1.8531494809027586e+113  -1.7284224858801335e+113  -2.2724091884506172e+115  -5.1815135107634473e+109  1.6153471253670963e+108  -9.2431446231379262e+103  -2.7500083980435836e+114  -8.5639446275772754e+105  1.0088617209487329e+103  2.3948288964225590e+112  -2.7045778142350277e+112  -7.8022969573950031e+106  -2.7463804696223124e+103  4.4738867978762485e+103  2.5496231460164625e+102  -2.8661181542739010e+117  -2.9893846648226147e+116  2.1523144240833616e+107  -1.3311678160949597e+120  -6.0336045335920052e+104  -2.6037837838595929e+109  5.3210375898531545e+108  8.4137816613954101e+102  6.9842248467357564e+101  8.6166470687782212e+106  3.3458217475501441e+109  -5.1784598227649475e+109  -5.9238105243722722e+108  2.0064930949364098e+112  2.0379867299829216e+114  6.6661460041595802e+110  6.5573004406951384e+108  -9.9291110384708882e+103  -5.3710277387366104e+121  2.4882856365346358e+116  -7.2867365680223699e+115  -2.3333857457220240e+118  3.7291979751985356e+121  8.7115720008849491e+106  7.2620543494638516e+117  1.9433210220853614e+112  6.0897666702160894e+106  -1.1469863308914575e+106  1.0749078520576320e+116  1.1335026306001238e+120  -5.6682377199836014e+109  -5.3052358671536308e+102  1.4746825450298612e+113  -9.7853879356102368e+117  -1.7274603440783108e+106  -1.2642368019260562e+106  5.9822556002951680e+104  3.0562542929655137e+102  -6.3759999464366871e+107  1.3351975308851762e+103  -5.3436232177646437e+101  3.2777545538992650e+101  -1.2921740506573962e+106  8.5298590169179499e+110  -1.8176295280601373e+103  -6.5873805918673194e+106  -1.2551413200713837e+113  -3.7345713781048676e+108  6.3895598950228155e+104  1.2209829952264095e+101  1.7148613961031123e+106  1.8275520022260485e+113  1.5151055984032587e+118  -3.8810735494794687e+105  -1.4068799138121217e+117  9.5002251594388268e+100  -5.1435131999043356e+113  -4.3185062962215513e+102  1.9341546698503048e+107  1.3084270681161595e+103  -1.4053566504806385e+114  2.4874196175146686e+106  1.5273623174912289e+115  5.0239130270268878e+110  3.9944020013084748e+120  -6.2616556594950855e+101  -4.3051732146322280e+111  3.0496009316587507e+110  5.2288532328781782e+114  3.7508160602804227e+102  -1.9046212343086658e+105  -5.5741766423859232e+102  -1.3825179826324369e+118  5.3653154530936423e+102  -1.3334352457041999e+104  3.5826647177875511e+115  4.2881441652450148e+117  1.9294260738173043e+107  -4.5167235534081157e+106  -3.7842813942867601e+113  -2.8028369949604450e+109  -2.5102358473004041e+111  1.4720224430945731e+112  2.2889211585965484e+112  -8.3841950909187946e+107  -2.9114821659302990e+109  -1.1722593133658725e+107  2.5524563622979046e+106  6.1946400974425622e+117  5.1068067471668129e+104  1.5527488276318542e+107  2.2470131571536702e+107  -2.9788767197792952e+117  1.7035772124223737e+117  -2.5605575304009126e+105  -3.8869575039839460e+102  -1.4092419577765139e+108  9.6745859914910491e+115  -8.9029423655766895e+102  -1.3110086925348022e+110  -1.8975254083831692e+110  1.9657763979850318e+105  -1.6662242173301784e+110  -4.3672924928747377e+115  1.6475241574824822e+111  -1.2538309907178601e+109  4.0917518312391606e+102  -1.4862656636883198e+108  5.8469408584954743e+102  -1.4598895969310241e+109  -9.5723536948572200e+101  -3.6277947889703433e+103  4.5418614074639140e+103  -1.1433329710980741e+103  -3.6520910133905513e+105  1.0787471912390093e+103  -1.1949859556393510e+113  -6.2675562120103923e+110  -2.9641404572744028e+106  -2.8288998816104169e+105  -3.6158926121640689e+115  1.1658785129484906e+118  1.8280335193334518e+111  5.2749098637779343e+110  2.4124272029881763e+103  1.2952597549224645e+114  5.3325849749065091e+105  -3.5813084461032322e+102  1.0422717505554174e+101  2.9499006770758728e+115  -1.6317632311852224e+112  -5.9833241921043242e+111  5.2888039318925267e+111  2.7043936801633885e+118  3.3943327055784172e+118  -3.0113681928782499e+104  -1.6999733030972342e+117  5.4411472526759437e+108  -7.6097658134329968e+113  -3.7568639130220179e+103  -9.5063783044347971e+101  -5.9876578128789567e+102  -2.5399791448553152e+109  -1.2665466675619572e+106  4.5482350378687053e+113  -3.3077756646271732e+115  1.7311886437272797e+116  3.7567341915393799e+105  -4.0711747963436737e+103  7.4285103715847089e+102  -7.9411633092669033e+111  2.0995278978787328e+100  -1.2214565423478366e+118  9.6719369421539771e+115  -2.3593699249110147e+108  2.2365603922638496e+106  -5.0777733347946595e+106  6.1474402447822370e+118  -1.9018383564497427e+117  -8.9781029621842050e+115  -8.0299087536833238e+114  5.2463766379289732e+116  -3.9269221335233142e+116  2.3904981954675124e+119  9.6760122019066828e+111  -1.7714095965117088e+109  1.5153406914294033e+107  4.5467451315049515e+120  1.6437482692529619e+103  -4.3861273147546903e+105  2.8436750281289328e+116  5.1617122413973056e+119  -2.3595062181346044e+115  2.9239553604481932e+111  1.0776447266214540e+113  4.1994475301244033e+120  2.1828758210498708e+103  4.9698847202940762e+115  -3.5080275915053253e+102  -9.2885926190261152e+101  -4.8326412567017460e+102  -3.3418985908153565e+117  3.1763985035503628e+116  5.7992247670819860e+118  1.4211515942257016e+119  1.3622310231857857e+111  4.8555747755729384e+109  7.4194796828991748e+107  -2.0406763195460771e+111  -1.1642990096516228e+112  4.0660507355810487e+110  7.6263279038057973e+114  -4.3950191203550746e+111  -1.0682723637963348e+118  -2.0398388992821439e+106  -1.5737190253185325e+118  1.4733763231680014e+117  -2.9111002490563753e+112  4.9939307361798125e+107  -4.2483222798115759e+108  -2.5175583866987490e+102  1.6158872466394212e+107  1.2187844585403506e+107  -1.2035867538448456e+103  -9.8613166499279923e+116  5.2323562271220229e+102  -3.7403889203345797e+102  1.0956204225698801e+104  8.4998095650097470e+116  1.8719832784606188e+115  1.7711655480270967e+118  9.4290307298815803e+101  1.3277907316987081e+108  -7.3242843665156094e+109  -1.3966201482804088e+115  2.8698238598057299e+115  1.0738952360465522e+108  -8.8856753471642835e+114  1.0567550239740871e+115  3.8377782557748793e+121  7.9172573247058467e+108  3.4509941959243863e+103  1.7397577653352119e+113  -9.2184239188874564e+103  4.9244916468575982e+103  1.1922018870775425e+110  -6.7071938120641634e+101  2.6899752758086101e+105  -1.3999292690393555e+108  3.1756958539838742e+101  -1.6450978620251353e+109  2.8119876940214369e+110  5.6375687785006403e+101  -3.3887352202705787e+105  -3.4009669504059558e+101  2.2057245764078858e+106  -3.8335245170238657e+105  -1.9548571343984960e+111  8.2688524851107598e+119  -3.5975043434565899e+103  -2.0870822720759383e+117  4.5188094926567139e+118  -2.5856830850738055e+106  -3.8822609534434761e+102  4.2764459923506683e+111  2.3305931936468708e+105  6.5903562892393489e+119  2.3952105004459055e+104  -6.1044520191873987e+107  2.5340887013345333e+118  -1.9328864399055694e+105  -3.7082018497649727e+101  4.2723533414033046e+101  1.9416872281704219e+106  2.3654902766667022e+116  -2.6063160839848658e+115  -8.3859671249282760e+107  1.5834790287654742e+105  -1.5261274244354553e+119  5.9505948464800416e+110  8.3271595921692816e+102  -6.3240194932721252e+113  -7.8057676938020901e+101  -5.7781081580763081e+104  -1.5798098059426122e+114  -2.8306986383800711e+102  2.5480426892723090e+120  -7.1751623978937961e+102  5.2805924218640238e+105  2.2617422140219700e+101  1.6861573092705545e+114  -6.1812077719612765e+109  -2.0641419778222312e+107  -1.7782664509212209e+113  -1.0870223225653957e+101  1.8546270896147275e+106  2.3610661000979442e+115  5.5749919271562902e+103  -5.3250235321077121e+112  -5.6405708857672177e+107  1.1182453409454367e+101  1.2763479845972972e+101  2.5779754338744868e+113  1.1345237650382614e+104  -2.4285223136802604e+115  -4.0098081432067178e+107  2.9120848927541133e+115  7.0282194183387881e+111  -2.1041214407855197e+102  -6.1505891517718588e+104  8.2527552462195636e+105  1.7787788674626373e+104  -6.9330119894555818e+104  1.0020567843020822e+117  -3.0232206386874736e+117  2.3342273904031452e+121  1.0994543186514880e+117  -7.2943253036176325e+105  4.5795524213473819e+119  -2.7157161954013003e+116  -2.7096276337599588e+105  3.6509510668700932e+101  1.5812711675152725e+102  -1.5209152639677525e+110  -8.9780281603495206e+109  -6.7975517422761394e+106  -4.6204123321265494e+115  -1.1120422751535946e+109  -2.4086659666239604e+102  1.8657244250438833e+100  -7.5930975454396745e+102  1.0874026163173648e+110  -8.0652227392999169e+103  2.1053106281914357e+108  4.9060345295154286e+104  -1.0422301475455402e+104  1.2101762293915799e+105  2.5368827460536099e+110  -2.9876839499505370e+104  1.8795368887066352e+114  -1.2712836134925690e+112  5.7253191020930798e+112  -2.1234653908745399e+111  -1.0750157232860451e+113  1.1630383168379042e+114  9.4822372228221109e+104  2.7999672376191808e+116  2.7174188124246810e+106  -1.3731685127316678e+120  5.0036853627330604e+109  5.7965736772187617e+114  5.2795172859761076e+112  1.2100756298636273e+120  7.6539336713516999e+103  -4.4205781052397090e+102  1.1578525692164846e+104  1.0961812983669908e+119  8.6845556977481619e+108  -6.1214443709567269e+113  -1.7603481476747826e+113  5.9470256035570114e+101  -3.7222769872449947e+111  -4.4627168863303097e+101  -4.6276913572550967e+119  -4.3888145911997858e+119  9.7834669553367467e+116  5.2924724328702310e+106  -4.4855739660072398e+105  7.8916779078207493e+104  1.0703998148495076e+109  1.2911121978511758e+110  5.1034039863708401e+112  1.2064468111436607e+104  1.5124890578259804e+115  4.1909228832851802e+111  1.6823658859030573e+106  -1.0933751596219520e+120  -4.5330711535143478e+107  -1.2101663415242068e+113  1.5347262612308443e+108  -6.0071970550266451e+110  -2.6307729877364865e+109  -3.6215071657105362e+106  6.0243725628643678e+101  -8.4781779002835282e+104  3.2419028931568762e+101  