<?xml version="1.0"?>
<VTKFile type="UnstructuredGrid"  version="0.1"  >
<UnstructuredGrid>
<Piece  NumberOfPoints="20054" NumberOfCells="39478">
<Points>
<DataArray  type="Float64"  NumberOfComponents="3"  format="ascii">1 0 0  0.9997998037428526 0.02000880895389431 0  0.9991992951284931 0.04000960653046352 0  0.9981987145960756 0.05999438456007805 0  0.9967984627705549 0.07995514128721501 0  0.9949991003022806 0.09988388457430118 0  0.9928013476425149 0.1197726351017051 0  0.9902060847549715 0.139613429562597 0  0.987214350763483 0.1593983238513969 0  0.9838273435359444 0.1791193962445356 0  0.9800464192046954 0.198768750572253 0  0.9758730916235354 0.2183385193801655 0  0.9713090317615876 0.237820867079336 0  0.9663560670342555 0.2572079930835849 0  0.9610161805715396 0.2764921349327862 0  0.9552915104240066 0.2956655714008991 0  0.9491843487067304 0.3147206255874884 0  0.9426971406815462 0.3336496679914983 0  0.9358324837779861 0.3524451195660473 0  0.9285931265532873 0.3710994547530225 0  0.9209819675918909 0.3896052044962556 0  0.9130020543448703 0.4079549592320781 0  0.9046565819097542 0.4261413718560547 0  0.8959488917512338 0.4441571606647087 0  0.8868824703632656 0.4619951122710622 0  0.8774609478731046 0.4796480844928215 0  0.8676880965878291 0.4971090092120542 0  0.8575678294839372 0.5143708952052096 0  0.8471041986406199 0.5314268309423539 0  0.8363013936173391 0.5482699873544935 0  0.8251637397763597 0.5648936205678837 0  0.8136956965509062 0.5812910746042258 0  0.8019018556596399 0.5974557840456699 0  0.7897869392681683 0.6133812766635599 0  0.777355798098326 0.6290611760098652 0  0.7646134094859813 0.6444892039702628 0  0.7515648753881492 0.6596591832778468 0  0.7382154203402046 0.6745650399864606 0  0.7245703893640189 0.6892008059026586 0  0.7106352458278521 0.7035606209753273 0  0.6964155692588616 0.7176387356420051 0  0.6819170531091018 0.7314295131309636 0  0.6671455024759069 0.7449274317181303 0  0.6521068317775753 0.7581270869379442 0  0.6368070623852795 0.7710231937472638 0  0.6212523202121545 0.7836105886414595 0  0.6054488332605282 0.795884231721841 0  0.5894029291282759 0.8078392087135958 0  0.5731210324752972 0.8194707329334278 0  0.5566096624511305 0.8307741472061095 0  0.5398754300847343 0.8417449257291802 0  0.5229250356374803 0.8523786758850435 0  0.5057652659204196 0.8626711399997378 0  0.4884029915768944 0.8726181970476778 0  0.4708451643315825 0.8822158643016828 0  0.45309881420708 0.8914602989276292 0  0.4351710467091336 0.9003477995230937 0  0.4170690399816468 0.9088748075993677 0  0.398800041932607 0.9170379090062476 0  0.3803713673320772 0.9248338352990368 0  0.3617903948834157 0.9322594650472057 0  0.3430645642688987 0.9393118250841893 0  0.3242013731709288 0.9459880916978206 0  0.3052083742700172 0.952285591760924 0  0.2860931722207478 0.9582018038016155 0  0.2668634206069304 0.963734359012881 0  0.2475268188771628 0.9688810422010291 0  0.2280911092620296 0.9736397926726377 0  0.2085640736741707 0.9780087050596407 0  0.1889535305924618 0.9819860300822225 0  0.1692673319315541 0.9855701752492174 0  0.1495133598980264 0.9887597054957302 0  0.1296995238344084 0.9915533437577263 0  0.1098337570523395 0.9939499714833577 0  0.08992401365612977 0.9959486290808237 0  0.06997826535799723 0.9975485163025836 0  0.05000449828625179 0.9987489925657699 0  0.03001070978771124 0.9995495772086734 0  0.01000490522562346 0.9999499496831961 0  -0.01000490522562333 0.9999499496831961 0  -0.03001070978771133 0.9995495772086734 0  -0.05000449828625144 0.9987489925657699 0  -0.06997826535799688 0.9975485163025836 0  -0.08992401365612987 0.9959486290808237 0  -0.1098337570523394 0.9939499714833577 0  -0.1296995238344082 0.9915533437577263 0  -0.1495133598980262 0.9887597054957303 0  -0.1692673319315537 0.9855701752492174 0  -0.1889535305924614 0.9819860300822226 0  -0.2085640736741705 0.9780087050596407 0  -0.2280911092620295 0.9736397926726377 0  -0.2475268188771627 0.9688810422010291 0  -0.2668634206069302 0.9637343590128811 0  -0.2860931722207475 0.9582018038016156 0  -0.3052083742700173 0.9522855917609239 0  -0.3242013731709289 0.9459880916978205 0  -0.3430645642688986 0.9393118250841894 0  -0.3617903948834154 0.9322594650472058 0  -0.380371367332077 0.924833835299037 0  -0.3988000419326071 0.9170379090062476 0  -0.4170690399816465 0.9088748075993678 0  -0.4351710467091335 0.9003477995230939 0  -0.4530988142070799 0.8914602989276292 0  -0.4708451643315824 0.8822158643016829 0  -0.4884029915768945 0.8726181970476778 0  -0.5057652659204197 0.8626711399997378 0  -0.5229250356374801 0.8523786758850437 0  -0.5398754300847342 0.8417449257291804 0  -0.5566096624511303 0.8307741472061098 0  -0.5731210324752971 0.8194707329334279 0  -0.589402929128276 0.8078392087135957 0  -0.6054488332605281 0.7958842317218411 0  -0.6212523202121542 0.7836105886414597 0  -0.6368070623852793 0.7710231937472639 0  -0.652106831777575 0.7581270869379444 0  -0.6671455024759069 0.7449274317181304 0  -0.6819170531091018 0.7314295131309636 0  -0.6964155692588616 0.7176387356420052 0  -0.7106352458278521 0.7035606209753273 0  -0.7245703893640187 0.6892008059026588 0  -0.7382154203402043 0.6745650399864608 0  -0.751564875388149 0.6596591832778469 0  -0.7646134094859813 0.6444892039702628 0  -0.7773557980983258 0.6290611760098654 0  -0.7897869392681683 0.6133812766635599 0  -0.8019018556596398 0.59745578404567 0  -0.8136956965509062 0.5812910746042258 0  -0.8251637397763595 0.5648936205678839 0  -0.836301393617339 0.5482699873544935 0  -0.8471041986406197 0.5314268309423542 0  -0.8575678294839372 0.5143708952052097 0  -0.8676880965878292 0.497109009212054 0  -0.8774609478731045 0.4796480844928216 0  -0.8868824703632656 0.4619951122710621 0  -0.8959488917512338 0.4441571606647088 0  -0.904656581909754 0.426141371856055 0  -0.9130020543448703 0.4079549592320783 0  -0.920981967591891 0.3896052044962555 0  -0.9285931265532872 0.3710994547530226 0  -0.9358324837779861 0.3524451195660473 0  -0.9426971406815462 0.3336496679914984 0  -0.9491843487067303 0.3147206255874888 0  -0.9552915104240065 0.2956655714008993 0  -0.9610161805715396 0.2764921349327862 0  -0.9663560670342555 0.2572079930835851 0  -0.9713090317615876 0.2378208670793361 0  -0.9758730916235353 0.2183385193801658 0  -0.9800464192046954 0.198768750572253 0  -0.9838273435359444 0.1791193962445354 0  -0.987214350763483 0.159398323851397 0  -0.9902060847549714 0.1396134295625972 0  -0.9928013476425149 0.1197726351017052 0  -0.9949991003022804 0.09988388457430147 0  -0.9967984627705549 0.07995514128721509 0  -0.9981987145960756 0.05999438456007793 0  -0.9991992951284931 0.04000960653046362 0  -0.9997998037428526 0.02000880895389464 0  -1 1.224646799147353e-16 0  -0.9997998037428526 -0.0200088089538944 0  -0.9991992951284931 -0.04000960653046338 0  -0.9981987145960756 -0.05999438456007812 0  -0.9967984627705549 -0.07995514128721484 0  -0.9949991003022806 -0.09988388457430078 0  -0.9928013476425149 -0.1197726351017049 0  -0.9902060847549715 -0.1396134295625965 0  -0.9872143507634831 -0.1593983238513963 0  -0.9838273435359444 -0.1791193962445356 0  -0.9800464192046953 -0.1987687505722532 0  -0.9758730916235354 -0.2183385193801655 0  -0.9713090317615876 -0.2378208670793363 0  -0.9663560670342556 -0.2572079930835848 0  -0.9610161805715396 -0.276492134932786 0  -0.9552915104240066 -0.2956655714008991 0  -0.9491843487067305 -0.3147206255874881 0  -0.9426971406815464 -0.3336496679914978 0  -0.9358324837779862 -0.3524451195660471 0  -0.9285931265532875 -0.371099454753022 0  -0.9209819675918909 -0.3896052044962557 0  -0.9130020543448704 -0.407954959232078 0  -0.9046565819097541 -0.4261413718560548 0  -0.8959488917512338 -0.4441571606647086 0  -0.8868824703632655 -0.4619951122710623 0  -0.8774609478731046 -0.4796480844928214 0  -0.8676880965878293 -0.4971090092120538 0  -0.8575678294839373 -0.5143708952052095 0  -0.84710419864062 -0.5314268309423537 0  -0.8363013936173395 -0.5482699873544929 0  -0.8251637397763596 -0.5648936205678838 0  -0.8136956965509061 -0.5812910746042259 0  -0.8019018556596399 -0.5974557840456699 0  -0.7897869392681682 -0.61338127666356 0  -0.777355798098326 -0.6290611760098652 0  -0.7646134094859816 -0.6444892039702625 0  -0.7515648753881492 -0.6596591832778468 0  -0.7382154203402048 -0.6745650399864603 0  -0.7245703893640192 -0.6892008059026583 0  -0.7106352458278522 -0.7035606209753272 0  -0.6964155692588621 -0.7176387356420046 0  -0.6819170531091017 -0.7314295131309637 0  -0.667145502475907 -0.7449274317181303 0  -0.6521068317775756 -0.758127086937944 0  -0.6368070623852792 -0.7710231937472641 0  -0.6212523202121544 -0.7836105886414596 0  -0.6054488332605283 -0.795884231721841 0  -0.5894029291282762 -0.8078392087135956 0  -0.5731210324752977 -0.8194707329334274 0  -0.5566096624511304 -0.8307741472061095 0  -0.5398754300847344 -0.8417449257291802 0  -0.5229250356374798 -0.8523786758850437 0  -0.5057652659204195 -0.8626711399997379 0  -0.4884029915768943 -0.872618197047678 0  -0.4708451643315825 -0.8822158643016828 0  -0.4530988142070805 -0.8914602989276289 0  -0.4351710467091333 -0.900347799523094 0  -0.4170690399816467 -0.9088748075993677 0  -0.3988000419326073 -0.9170379090062475 0  -0.3803713673320777 -0.9248338352990366 0  -0.3617903948834162 -0.9322594650472055 0  -0.3430645642688988 -0.9393118250841893 0  -0.3242013731709283 -0.9459880916978207 0  -0.3052083742700169 -0.9522855917609241 0  -0.2860931722207477 -0.9582018038016155 0  -0.2668634206069305 -0.963734359012881 0  -0.2475268188771631 -0.968881042201029 0  -0.2280911092620301 -0.9736397926726376 0  -0.2085640736741706 -0.9780087050596407 0  -0.1889535305924619 -0.9819860300822225 0  -0.1692673319315544 -0.9855701752492173 0  -0.1495133598980269 -0.9887597054957302 0  -0.1296995238344092 -0.9915533437577262 0  -0.1098337570523396 -0.9939499714833577 0  -0.08992401365612945 -0.9959486290808237 0  -0.06997826535799691 -0.9975485163025836 0  -0.05000449828625168 -0.9987489925657699 0  -0.030010709787
[...]
<PointData  Scalars="Displacement"> 
<DataArray  type="Float64"  Name="Displacement"  format="ascii">0.0000000000000000e+00  0.0000000000000000e+00  0.0000000000000000e+00  0.0000000000000000e+00  0.0000000000000000e+00  0.0000000000000000e+00  0.0000000000000000e+00  0.0000000000000000e+00  0.0000000000000000e+00  0.0000000000000000e+00  0.0000000000000000e+00  0.0000000000000000e+00  0.0000000000000000e+00  0.0000000000000000e+00  0.0000000000000000e+00  0.0000000000000000e+00  0.0000000000000000e+00  0.0000000000000000e+00  0.0000000000000000e+00  0.0000000000000000e+00  0.0000000000000000e+00  0.0000000000000000e+00  0.0000000000000000e+00  0.0000000000000000e+00  0.0000000000000000e+00  0.0000000000000000e+00  0.0000000000000000e+00  0.0000000000000000e+00  0.0000000000000000e+00  0.0000000000000000e+00  0.0000000000000000e+00  0.0000000000000000e+00  0.0000000000000000e+00  0.0000000000000000e+00  0.0000000000000000e+00  0.0000000000000000e+00  0.0000000000000000e+00  0.0000000000000000e+00  0.0000000000000000e+00  0.0000000000000000e+00  0.0000000000000000e+00  0.0000000000000000e+00  0.0000000000000000e+00  0.0000000000000000e+00  0.0000000000000000e+00  0.0000000000000000e+00  0.0000000000000000e+00  0.0000000000000000e+00  0.0000000000000000e+00  0.0000000000000000e+00  0.0000000000000000e+00  0.0000000000000000e+00  0.0000000000000000e+00  0.0000000000000000e+00  0.0000000000000000e+00  0.0000000000000000e+00  0.0000000000000000e+00  0.0000000000000000e+00  0.0000000000000000e+00  0.0000000000000000e+00  0.0000000000000000e+00  0.0000000000000000e+00  0.0000000000000000e+00  0.0000000000000000e+00  0.0000000000000000e+00  0.0000000000000000e+00  0.0000000000000000e+00  0.0000000000000000e+00  0.0000000000000000e+00  0.0000000000000000e+00  0.0000000000000000e+00  0.0000000000000000e+00  0.0000000000000000e+00  0.0000000000000000e+00  0.0000000000000000e+00  0.0000000000000000e+00  0.0000000000000000e+00  0.0000000000000000e+00  0.0000000000000000e+00  0.0000000000000000e+00  0.0000000000000000e+00  0.0000000000000000e+00  0.0000000000000000e+00  0.0000000000000000e+00  0.0000000000000000e+00  0.0000000000000000e+00  0.0000000000000000e+00  0.0000000000000000e+00  0.0000000000000000e+00  0.0000000000000000e+00  0.0000000000000000e+00  0.0000000000000000e+00  0.0000000000000000e+00  0.0000000000000000e+00  0.0000000000000000e+00  0.0000000000000000e+00  0.0000000000000000e+00  0.0000000000000000e+00  0.0000000000000000e+00  0.0000000000000000e+00  0.0000000000000000e+00  0.0000000000000000e+00  0.0000000000000000e+00  0.0000000000000000e+00  0.0000000000000000e+00  0.0000000000000000e+00  0.0000000000000000e+00  0.0000000000000000e+00  0.0000000000000000e+00  0.0000000000000000e+00  0.0000000000000000e+00  0.0000000000000000e+00  0.0000000000000000e+00  0.0000000000000000e+00  0.0000000000000000e+00  0.0000000000000000e+00  0.0000000000000000e+00  0.0000000000000000e+00  0.0000000000000000e+00  0.0000000000000000e+00  0.0000000000000000e+00  0.0000000000000000e+00  0.0000000000000000e+00  0.0000000000000000e+00  0.0000000000000000e+00  0.0000000000000000e+00  0.0000000000000000e+00  0.0000000000000000e+00  0.0000000000000000e+00  0.0000000000000000e+00  0.0000000000000000e+00  0.0000000000000000e+00  0.0000000000000000e+00  0.0000000000000000e+00  0.0000000000000000e+00  0.0000000000000000e+00  0.0000000000000000e+00  0.0000000000000000e+00  0.0000000000000000e+00  0.0000000000000000e+00  0.0000000000000000e+00  0.0000000000000000e+00  0.0000000000000000e+00  0.0000000000000000e+00  0.0000000000000000e+00  0.0000000000000000e+00  0.0000000000000000e+00  0.0000000000000000e+00  0.0000000000000000e+00  0.0000000000000000e+00  0.0000000000000000e+00  0.0000000000000000e+00  0.0000000000000000e+00  0.0000000000000000e+00  0.0000000000000000e+00  0.0000000000000000e+00  0.0000000000000000e+00  0.0000000000000000e+00  0.0000000000000000e+00  0.0000000000000000e+00  0.0000000000000000e+00  0.0000000000000000e+00  0.0000000000000000e+00  0.0000000000000000e+00  0.0000000000000000e+00  0.0000000000000000e+00  0.0000000000000000e+00  0.0000000000000000e+00  0.0000000000000000e+00  0.0000000000000000e+00  0.0000000000000000e+00  0.0000000000000000e+00  0.0000000000000000e+00  0.0000000000000000e+00  0.0000000000000000e+00  0.0000000000000000e+00  0.0000000000000000e+00  0.0000000000000000e+00  0.0000000000000000e+00  0.0000000000000000e+00  0.0000000000000000e+00  0.0000000000000000e+00  0.0000000000000000e+00  0.0000000000000000e+00  0.0000000000000000e+00  0.0000000000000000e+00  0.0000000000000000e+00  0.0000000000000000e+00  0.0000000000000000e+00  0.0000000000000000e+00  0.0000000000000000e+00  0.0000000000000000e+00  0.0000000000000000e+00  0.0000000000000000e+00  0.0000000000000000e+00  0.0000000000000000e+00  0.0000000000000000e+00  0.0000000000000000e+00  0.0000000000000000e+00  0.0000000000000000e+00  0.0000000000000000e+00  0.0000000000000000e+00  0.0000000000000000e+00  0.0000000000000000e+00  0.0000000000000000e+00  0.0000000000000000e+00  0.0000000000000000e+00  0.0000000000000000e+00  0.0000000000000000e+00  0.0000000000000000e+00  0.0000000000000000e+00  0.0000000000000000e+00  0.0000000000000000e+00  0.0000000000000000e+00  0.0000000000000000e+00  0.0000000000000000e+00  0.0000000000000000e+00  0.0000000000000000e+00  0.0000000000000000e+00  0.0000000000000000e+00  0.0000000000000000e+00  0.0000000000000000e+00  0.0000000000000000e+00  0.0000000000000000e+00  0.0000000000000000e+00  0.0000000000000000e+00  0.0000000000000000e+00  0.0000000000000000e+00  0.0000000000000000e+00  0.0000000000000000e+00  0.0000000000000000e+00  0.0000000000000000e+00  0.0000000000000000e+00  0.0000000000000000e+00  0.0000000000000000e+00  0.0000000000000000e+00  0.0000000000000000e+00  0.0000000000000000e+00  0.0000000000000000e+00  0.0000000000000000e+00  0.0000000000000000e+00  0.0000000000000000e+00  0.0000000000000000e+00  0.0000000000000000e+00  0.0000000000000000e+00  0.0000000000000000e+00  0.0000000000000000e+00  0.0000000000000000e+00  0.0000000000000000e+00  0.0000000000000000e+00  0.0000000000000000e+00  0.0000000000000000e+00  0.0000000000000000e+00  0.0000000000000000e+00  0.0000000000000000e+00  0.0000000000000000e+00  0.0000000000000000e+00  0.0000000000000000e+00  0.0000000000000000e+00  0.0000000000000000e+00  0.0000000000000000e+00  0.0000000000000000e+00  0.0000000000000000e+00  0.0000000000000000e+00  0.0000000000000000e+00  0.0000000000000000e+00  0.0000000000000000e+00  0.0000000000000000e+00  0.0000000000000000e+00  0.0000000000000000e+00  0.0000000000000000e+00  0.0000000000000000e+00  0.0000000000000000e+00  0.0000000000000000e+00  0.0000000000000000e+00  0.0000000000000000e+00  0.0000000000000000e+00  0.0000000000000000e+00  0.0000000000000000e+00  0.0000000000000000e+00  0.0000000000000000e+00  0.0000000000000000e+00  0.0000000000000000e+00  0.0000000000000000e+00  0.0000000000000000e+00  0.0000000000000000e+00  0.0000000000000000e+00  0.0000000000000000e+00  0.0000000000000000e+00  0.0000000000000000e+00  0.0000000000000000e+00  0.0000000000000000e+00  0.0000000000000000e+00  0.0000000000000000e+00  0.0000000000000000e+00  0.0000000000000000e+00  0.0000000000000000e+00  0.0000000000000000e+00  0.0000000000000000e+00  0.0000000000000000e+00  0.0000000000000000e+00  0.0000000000000000e+00  0.0000000000000000e+00  0.0000000000000000e+00  0.0000000000000000e+00  0.0000000000000000e+00  0.0000000000000000e+00  0.0000000000000000e+00  0.0000000000000000e+00  0.0000000000000000e+00  0.0000000000000000e+00  0.0000000000000000e+00  0.0000000000000000e+00  0.0000000000000000e+00  -1.3772192520162027e+62  7.8687961013435270e+55  -5.5679593930064485e+57  -9.5016763346442731e+57  -1.1406049737179326e+58  1.7402486516506069e+56  -3.1398413739906774e+55  5.9122230589029593e+51  1.0132800706728107e+53  -1.4266721754427985e+52  -3.3778803508465932e+52  -3.4363728385050243e+61  -3.1975729392842340e+51  -2.0723857136592070e+51  2.8781042367667941e+62  -3.0240527894667543e+62  -1.5184794494749244e+50  -7.8622124431098463e+48  -9.2757476922179491e+49  1.5470317255108293e+49  -1.0049901655992709e+50  -1.8901495770730418e+50  -6.9147218612351487e+49  4.0000890962565115e+59  -3.2367534987262023e+60  -4.6092012611970750e+61  2.2777827383305444e+50  4.1768967354809627e+48  1.2346509969243320e+49  -6.3092807691057249e+58  -3.7062123630602730e+48  1.1231930854230320e+62  -1.7610572660483064e+63  2.5673161800561152e+58  1.9608696005588135e+49  -4.4119213005877857e+47  -3.5271560056186117e+47  -9.0275848661911216e+47  5.8257967953160003e+47  4.7379247144551932e+55  -2.7883633573374009e+56  8.4717549877473090e+54  -4.0915081400697727e+54  2.2136282909438483e+61  4.6375018273290623e+47  4.6975556912160808e+47  1.5871548210592378e+47  -3.4900503227751638e+47  5.2628658317463443e+54  1.0475003780422451e+55  6.2053533842989878e+51  5.8962552183845183e+54  2.5342395643571264e+55  -1.2806143173646560e+58  -1.6277184662010944e+48  1.5002694186446816e+62  1.2795410004255126e+47  -5.2739056884907163e+45  -5.2457552714575440e+58  -3.4832298384340799e+45  -5.1219005881918221e+46  1.6974223243160946e+52  -9.2495455846578261e+46  5.2095170364093498e+46  1.2614565369489841e+62  -6.9196206297074569e+62  5.7638238456765873e+61  6.8224143227075178e+57  5.0441223430030713e+60  1.2228814249032924e+61  -1.9232983517309774e+60  -2.9933426373355518e+55  -1.6964828366647058e+54  -3.1923232282656008e+54  -3.9887595870567951e+53  -2.6447996983886831e+60  4.1416400343713688e+46  4.0548007582107937e+58  -8.1222379681399654e+60  3.4016105243848970e+53  1.2529600878908172e+46  2.7742188799351662e+59  2.4651412738881873e+46  -4.0302919086857153e+46  1.0913838851915622e+46  -1.9124881054560444e+64  -5.2694328544987843e+46  -2.1683740367530230e+45  -4.2752900264743661e+45  -8.8660278686967224e+60  -1.9634767088057917e+50  -5.5682838965546307e+46  2.2862793832814820e+53  -3.3550097594943322e+45  -5.9653348177358909e+51  2.2123466482074661e+63  1.1910419371667801e+45  2.9674700173878939e+46  9.3658200137199312e+51  -2.2210137926313019e+51  1.0219154541296221e+53  -2.2320645043466436e+50  -3.0958780232224039e+43  2.3905790125124144e+58  -3.5559297613676415e+55  7.2420280134837778e+55  -9.4955242157310039e+57  -2.5624050385101436e+51  2.8450886675376274e+51  2.9851594975926105e+44  -1.8646483206765154e+57  1.6690915165355407e+46  2.2249464613698857e+45  -3.5526968964786564e+55  -3.3987574330560097e+54  2.5996240230231263e+50  2.5498613507018706e+45  -8.6284735057433579e+44  -1.1072191923467083e+45  -6.9711479810800540e+62  2.9621250545959694e+59  -2.5209285028371479e+49  8.7681400046545863e+62  -1.0666507730834780e+46  9.3886211232148459e+49  3.8381674729970993e+52  9.3932020502495195e+43  -2.0906014446450848e+44  7.2423442372983950e+49  -1.1291059656733573e+50  -8.2592357078478524e+52  -5.8279519576785263e+50  -5.6760249346677401e+54  8.5480107880401049e+57  1.3496129532564373e+54  3.4213553214359503e+51  -1.4345396778344953e+46  2.9070740897792768e+64  -3.2463712009001975e+60  3.1093099934365382e+61  7.0063447995249175e+61  -1.7944671549668932e+64  1.6029891783885531e+49  -1.9569262513750321e+59  3.7844128299411908e+54  3.1488742056877358e+48  -1.0355801176553032e+48  2.9861553821868499e+61  -1.6550033797883205e+64  1.6922444460745333e+53  -2.8024721503500246e+44  -6.0850548892554206e+54  -7.5861626504391408e+60  -1.0936930704056164e+50  1.2167882848492712e+49  -6.5212701796201934e+46  2.1078364880697050e+44  -1.0009765002684775e+50  -7.5595517470511545e+44  1.4619600215050393e+44  -1.0384795916804148e+44  -6.2003693555560878e+48  -1.7939283292734344e+52  2.3287881598486283e+45  4.2114309126132318e+48  -1.9459313699798566e+56  -1.8485193000563820e+49  3.9787986256303475e+46  3.0762813813913745e+44  -1.2939145017588980e+49  -5.6854834717716141e+55  -1.1351978284734612e+62  -4.3312702951392462e+48  6.5074810596314969e+59  -3.9722139091880686e+44  -3.0534586872592596e+57  -7.8349744264680912e+44  9.7035191388005718e+49  1.1867090406180864e+45  7.0157772565761288e+57  -1.1235413626443524e+49  -5.9096335673088815e+57  2.2282961925430831e+54  -2.1841760313352524e+64  -2.7942050593557367e+44  -3.5634051838691720e+54  1.2575061539526901e+53  -1.4353983345032027e+57  9.5954098627661024e+43  3.1975403402150157e+47  9.8451726716808149e+42  7.4429405972910716e+62  1.0027478527769931e+45  4.8107975375374597e+44  -6.7922429463565960e+56  8.2486569138840132e+59  2.0863939637694770e+49  -1.3326742033275107e+49  -2.8586171086348466e+56  -4.9676811682079214e+51  1.4622163334849007e+54  3.2252184851673706e+55  -6.7937732928728030e+55  6.8871873096875094e+51  2.5620604829029265e+54  -3.7662092508731862e+48  -5.2475334215201148e+48  -1.6114419364849909e+62  -3.4353197163030576e+45  -1.2353951614660106e+49  -3.5144028229452458e+49  3.2438751845544080e+62  -1.3800892380620118e+61  5.4240646030529123e+45  -1.9311565692533959e+44  3.0524886114936421e+49  -3.6771773438539891e+58  -8.3899038689841014e+44  -9.0484837579611930e+52  1.6516823131899842e+52  8.5513217949039086e+46  -1.9847199666974299e+52  -3.4587115625432136e+58  1.5357472601319071e+54  1.3630053077134397e+53  9.8082081804606763e+43  1.9226534544899910e+50  1.0727676406340468e+44  -5.5922185837261774e+52  -1.5889360365147423e+44  -1.7585091135219142e+45  -2.8603819510025087e+44  1.3505018829889080e+43  -4.9730701364002933e+46  -1.2373034833859427e+44  -5.0072631544528345e+56  -1.7651248107245044e+54  -8.1859255633371025e+47  -4.5003388048249267e+47  -3.2600327233142758e+60  -5.7538617875214189e+61  -1.7706100275315787e+53  -9.2773575731410847e+53  -4.3551907649892538e+43  -1.0329808345562959e+57  -1.8398454577349209e+45  5.5390892336412565e+42  2.3242849708644401e+43  -8.7993600948950706e+58  1.9942793326360991e+56  7.1055454004461782e+54  4.0210173379117977e+55  7.8156621735911481e+62  -6.2343729475317539e+62  -3.4029605612182865e+47  9.6849046480947635e+59  -8.6166742304936357e+49  2.1347989187200898e+56  -4.7661817099384659e+44  -9.1074393835176058e+43  -1.2319185633513313e+45  4.5680586388442434e+51  3.3188534124965303e+47  -2.0369946764428350e+55  9.4889539217612083e+57  -1.2619017482872534e+59  7.7431349235686986e+46  7.1804858087052104e+44  1.1839695323164353e+45  7.5810431688765372e+54  -2.2195494350264898e+43  7.5172077626727696e+60  -5.3709441286812432e+58  2.3062522014615271e+50  3.7335002912213099e+48  2.2889142927460161e+50  3.5660656053918504e+60  1.8484812389993315e+61  4.4971363497964063e+59  7.3566206152792405e+58  -1.1345954406212500e+61  1.3816453544711528e+61  -5.4629402200456118e+63  -3.1345073828697188e+53  2.9130020864694625e+51  -5.7823357234252879e+49  -3.0186523828072184e+63  -6.7890641410365721e+44  5.4937254230450394e+47  5.8512881957048578e+58  -2.5355656737100126e+63  1.1084555306487820e+58  -1.1443326681227129e+54  -4.9053795999919963e+56  -1.2836987860838420e+63  1.0250419111411555e+45  -9.9447014194051739e+56  5.1926438117170733e+43  -3.8801701730786429e+43  2.0204522759526234e+44  2.0117129241090518e+61  1.3808032065626875e+61  -3.9687531839337939e+61  -5.3741486026104741e+60  -2.0335787922564477e+51  8.3669567635466546e+52  -1.1020805362523093e+50  4.2197044522860502e+52  8.5259508770393119e+52  -2.0788144519637613e+53  -7.8162692015458633e+56  7.7868388676120537e+52  1.9246748433580279e+61  -8.6057513322993988e+49  1.5628170047893209e+62  -2.6767033272067586e+61  -4.1227539425828418e+54  6.1105952991396485e+50  -1.8421201386897215e+49  2.2272790788825873e+42  1.7112461414259663e+46  1.0045538718371375e+49  5.9686569710520594e+44  9.8410923721586394e+59  1.0650591664327909e+43  -1.4207429096217872e+44  -2.2470399947579380e+46  -1.5603443044622505e+60  -4.5994964902064879e+59  -3.4659422431071378e+62  -7.8604974025307362e+43  -1.1944006814506100e+50  4.5369173379358386e+52  7.9368283699392901e+57  -1.2195154464012319e+59  2.4081257341870181e+50  6.3836080789503040e+57  3.3698551537783713e+60  -2.4828628140403226e+64  8.0013799176509703e+51  1.7816411313496849e+48  -1.0491689051698269e+57  -1.8045611599681702e+46  -1.6004438744288153e+46  -3.6161711845695713e+50  -3.0956682328380854e+43  -3.4254390109497564e+48  1.3728238644585713e+49  2.4617946357873345e+43  -5.9279567618355541e+51  -1.1652610250257868e+52  2.5375272217926666e+44  5.6677473028977793e+46  3.1291792926455047e+42  1.4387888994251467e+48  1.6929844961888117e+47  -1.3175249393019418e+54  -2.2009417057024235e+63  1.7884793863134841e+45  -7.8415154271501820e+61  -1.0197957014332739e+62  7.3346745189060800e+47  -4.7694557261759857e+44  -1.1765663019334880e+53  -6.9480045583315961e+46  -3.1565037985822476e+62  4.5424317111234888e+45  5.3690432237795322e+49  -1.9107208241794328e+62  -1.5638017624284309e+48  -5.4326959285946940e+43  4.5923572051990575e+44  1.5740024536360776e+48  -2.0754793279347717e+60  1.3036101714725943e+59  1.3003301235981095e+51  1.3608169107231522e+45  1.4665018208781138e+61  -1.1592746466136527e+53  2.2263225672670772e+44  1.6479493510169872e+56  1.0083007264735547e+44  3.3774467177322206e+47  5.2178563272561933e+57  -2.7666065018502669e+44  -1.9533127458842547e+63  -2.5631396187271490e+44  6.5295446774441942e+47  8.9709892889636416e+42  5.5686594591283590e+58  -7.5892695188605829e+54  -1.1556456476862423e+51  5.1772665967266249e+55  -3.0735957568677563e+42  1.2942091913362365e+48  7.8960748948131400e+57  3.3709655338130454e+44  -6.0759659200531388e+54  -1.9618962169041556e+50  -3.3964501124749877e+43  1.5714392827778318e+43  -2.1612610326873394e+56  1.5815038699981409e+46  1.9730719754771661e+58  -7.7540324756305698e+49  3.8936532956487119e+55  -3.4762852606081975e+55  1.6074876833721267e+43  1.4287556872163704e+47  2.1748494928650633e+47  3.5849617940086529e+46  -7.0351060550873963e+46  -4.0698463911541854e+59  -7.0710699608786993e+58  -1.5475013061315420e+64  -4.3516448642731895e+59  1.1764134775281731e+48  -3.3442110095023688e+62  8.4548390152613220e+58  9.6086773670622738e+46  1.3246299164415590e+43  -1.1890824491198499e+44  -5.1775057210886371e+53  3.9862049975026063e+52  1.5531235565327236e+50  -1.1671191017605235e+60  1.4535470843476506e+51  -4.4048207224337066e+43  8.3754488268970145e+42  -3.4977170971098936e+44  -3.7179426085683858e+52  -1.1632792565970661e+47  -3.3770074305280435e+49  1.9811101406591309e+45  -1.0449053345401086e+47  2.8348809825218425e+46  -1.0541722103263728e+53  -4.9980626051605525e+47  -7.5926458018899068e+57  5.3142896405312679e+54  -2.3398769868810570e+56  1.2034112699279835e+54  2.7271451249285395e+55  5.6212281026192449e+58  7.8123800650615806e+46  -4.6114030894537161e+58  -5.2102439576281975e+49  9.1547714972865431e+63  1.0355166001590951e+52  -3.0149539896569801e+57  3.0907852285477126e+55  9.1116332144017793e+60  1.9289899248945420e+47  -1.4073202812702242e+43  2.2168969582757549e+42  -6.0297569638112161e+62  -2.0640584135214209e+51  1.1800909978355572e+57  1.3968352982922611e+55  4.6667558651444108e+45  3.7673594992178303e+54  -3.3197495204098499e+43  1.5682320101132006e+63  2.3294105492828281e+62  -7.0368023443399840e+58  -4.3370324098074190e+49  -4.1110506789381492e+47  2.7201333361729293e+47  1.7878647808988048e+50  1.2671954618743130e+51  6.2426126327983620e+54  -5.2905142910348737e+45  -2.5664801298500767e+58  2.8042636622503842e+56  -2.4335667932588382e+48  1.3387043478922066e+63  -6.7431940595084156e+49  -1.6077898213698553e+56  -4.5162747477463719e+51  1.1652236243014822e+54  2.2984593946912079e+51  -1.7653285900324947e+49  4.7864992091260328e+42  4.2312376929824384e+46  2.7724738003644646e+42  7.0448667266152038e+45  -8.5048465242541044e+43  -1.3162875588572870e+60  4.7544340287945140e+48  1.4081507672853158e+54  -6.7983194705070484e+48  -2.7957409446933805e+59  1.1719969921717545e+56  -3.5635896984082166e+61  2.0861558514146383e+44  -1.8270688468384386e+59  4.8494148206139012e+43  7.1531005158272985e+42  -2.1538976554104614e+44  -1.7307106077162284e+55  4.2116248451576095e+45  -6.8424630887551588e+44  3.2958807903057093e+56  5.0667190090619974e+55  -4.809354