<?xml version="1.0"?>
<VTKFile type="UnstructuredGrid"  version="0.1"  >
<UnstructuredGrid>
<Piece  NumberOfPoints="20054" NumberOfCells="39478">
<Points>
<DataArray  type="Float64"  NumberOfComponents="3"  format="ascii">1 0 0  0.9997998037428526 0.02000880895389431 0  0.9991992951284931 0.04000960653046352 0  0.9981987145960756 0.05999438456007805 0  0.9967984627705549 0.07995514128721501 0  0.9949991003022806 0.09988388457430118 0  0.9928013476425149 0.1197726351017051 0  0.9902060847549715 0.139613429562597 0  0.987214350763483 0.1593983238513969 0  0.9838273435359444 0.1791193962445356 0  0.9800464192046954 0.198768750572253 0  0.9758730916235354 0.2183385193801655 0  0.9713090317615876 0.237820867079336 0  0.9663560670342555 0.2572079930835849 0  0.9610161805715396 0.2764921349327862 0  0.9552915104240066 0.2956655714008991 0  0.9491843487067304 0.3147206255874884 0  0.9426971406815462 0.3336496679914983 0  0.9358324837779861 0.3524451195660473 0  0.9285931265532873 0.3710994547530225 0  0.9209819675918909 0.3896052044962556 0  0.9130020543448703 0.4079549592320781 0  0.9046565819097542 0.4261413718560547 0  0.8959488917512338 0.4441571606647087 0  0.8868824703632656 0.4619951122710622 0  0.8774609478731046 0.4796480844928215 0  0.8676880965878291 0.4971090092120542 0  0.8575678294839372 0.5143708952052096 0  0.8471041986406199 0.5314268309423539 0  0.8363013936173391 0.5482699873544935 0  0.8251637397763597 0.5648936205678837 0  0.8136956965509062 0.5812910746042258 0  0.8019018556596399 0.5974557840456699 0  0.7897869392681683 0.6133812766635599 0  0.777355798098326 0.6290611760098652 0  0.7646134094859813 0.6444892039702628 0  0.7515648753881492 0.6596591832778468 0  0.7382154203402046 0.6745650399864606 0  0.7245703893640189 0.6892008059026586 0  0.7106352458278521 0.7035606209753273 0  0.6964155692588616 0.7176387356420051 0  0.6819170531091018 0.7314295131309636 0  0.6671455024759069 0.7449274317181303 0  0.6521068317775753 0.7581270869379442 0  0.6368070623852795 0.7710231937472638 0  0.6212523202121545 0.7836105886414595 0  0.6054488332605282 0.795884231721841 0  0.5894029291282759 0.8078392087135958 0  0.5731210324752972 0.8194707329334278 0  0.5566096624511305 0.8307741472061095 0  0.5398754300847343 0.8417449257291802 0  0.5229250356374803 0.8523786758850435 0  0.5057652659204196 0.8626711399997378 0  0.4884029915768944 0.8726181970476778 0  0.4708451643315825 0.8822158643016828 0  0.45309881420708 0.8914602989276292 0  0.4351710467091336 0.9003477995230937 0  0.4170690399816468 0.9088748075993677 0  0.398800041932607 0.9170379090062476 0  0.3803713673320772 0.9248338352990368 0  0.3617903948834157 0.9322594650472057 0  0.3430645642688987 0.9393118250841893 0  0.3242013731709288 0.9459880916978206 0  0.3052083742700172 0.952285591760924 0  0.2860931722207478 0.9582018038016155 0  0.2668634206069304 0.963734359012881 0  0.2475268188771628 0.9688810422010291 0  0.2280911092620296 0.9736397926726377 0  0.2085640736741707 0.9780087050596407 0  0.1889535305924618 0.9819860300822225 0  0.1692673319315541 0.9855701752492174 0  0.1495133598980264 0.9887597054957302 0  0.1296995238344084 0.9915533437577263 0  0.1098337570523395 0.9939499714833577 0  0.08992401365612977 0.9959486290808237 0  0.06997826535799723 0.9975485163025836 0  0.05000449828625179 0.9987489925657699 0  0.03001070978771124 0.9995495772086734 0  0.01000490522562346 0.9999499496831961 0  -0.01000490522562333 0.9999499496831961 0  -0.03001070978771133 0.9995495772086734 0  -0.05000449828625144 0.9987489925657699 0  -0.06997826535799688 0.9975485163025836 0  -0.08992401365612987 0.9959486290808237 0  -0.1098337570523394 0.9939499714833577 0  -0.1296995238344082 0.9915533437577263 0  -0.1495133598980262 0.9887597054957303 0  -0.1692673319315537 0.9855701752492174 0  -0.1889535305924614 0.9819860300822226 0  -0.2085640736741705 0.9780087050596407 0  -0.2280911092620295 0.9736397926726377 0  -0.2475268188771627 0.9688810422010291 0  -0.2668634206069302 0.9637343590128811 0  -0.2860931722207475 0.9582018038016156 0  -0.3052083742700173 0.9522855917609239 0  -0.3242013731709289 0.9459880916978205 0  -0.3430645642688986 0.9393118250841894 0  -0.3617903948834154 0.9322594650472058 0  -0.380371367332077 0.924833835299037 0  -0.3988000419326071 0.9170379090062476 0  -0.4170690399816465 0.9088748075993678 0  -0.4351710467091335 0.9003477995230939 0  -0.4530988142070799 0.8914602989276292 0  -0.4708451643315824 0.8822158643016829 0  -0.4884029915768945 0.8726181970476778 0  -0.5057652659204197 0.8626711399997378 0  -0.5229250356374801 0.8523786758850437 0  -0.5398754300847342 0.8417449257291804 0  -0.5566096624511303 0.8307741472061098 0  -0.5731210324752971 0.8194707329334279 0  -0.589402929128276 0.8078392087135957 0  -0.6054488332605281 0.7958842317218411 0  -0.6212523202121542 0.7836105886414597 0  -0.6368070623852793 0.7710231937472639 0  -0.652106831777575 0.7581270869379444 0  -0.6671455024759069 0.7449274317181304 0  -0.6819170531091018 0.7314295131309636 0  -0.6964155692588616 0.7176387356420052 0  -0.7106352458278521 0.7035606209753273 0  -0.7245703893640187 0.6892008059026588 0  -0.7382154203402043 0.6745650399864608 0  -0.751564875388149 0.6596591832778469 0  -0.7646134094859813 0.6444892039702628 0  -0.7773557980983258 0.6290611760098654 0  -0.7897869392681683 0.6133812766635599 0  -0.8019018556596398 0.59745578404567 0  -0.8136956965509062 0.5812910746042258 0  -0.8251637397763595 0.5648936205678839 0  -0.836301393617339 0.5482699873544935 0  -0.8471041986406197 0.5314268309423542 0  -0.8575678294839372 0.5143708952052097 0  -0.8676880965878292 0.497109009212054 0  -0.8774609478731045 0.4796480844928216 0  -0.8868824703632656 0.4619951122710621 0  -0.8959488917512338 0.4441571606647088 0  -0.904656581909754 0.426141371856055 0  -0.9130020543448703 0.4079549592320783 0  -0.920981967591891 0.3896052044962555 0  -0.9285931265532872 0.3710994547530226 0  -0.9358324837779861 0.3524451195660473 0  -0.9426971406815462 0.3336496679914984 0  -0.9491843487067303 0.3147206255874888 0  -0.9552915104240065 0.2956655714008993 0  -0.9610161805715396 0.2764921349327862 0  -0.9663560670342555 0.2572079930835851 0  -0.9713090317615876 0.2378208670793361 0  -0.9758730916235353 0.2183385193801658 0  -0.9800464192046954 0.198768750572253 0  -0.9838273435359444 0.1791193962445354 0  -0.987214350763483 0.159398323851397 0  -0.9902060847549714 0.1396134295625972 0  -0.9928013476425149 0.1197726351017052 0  -0.9949991003022804 0.09988388457430147 0  -0.9967984627705549 0.07995514128721509 0  -0.9981987145960756 0.05999438456007793 0  -0.9991992951284931 0.04000960653046362 0  -0.9997998037428526 0.02000880895389464 0  -1 1.224646799147353e-16 0  -0.9997998037428526 -0.0200088089538944 0  -0.9991992951284931 -0.04000960653046338 0  -0.9981987145960756 -0.05999438456007812 0  -0.9967984627705549 -0.07995514128721484 0  -0.9949991003022806 -0.09988388457430078 0  -0.9928013476425149 -0.1197726351017049 0  -0.9902060847549715 -0.1396134295625965 0  -0.9872143507634831 -0.1593983238513963 0  -0.9838273435359444 -0.1791193962445356 0  -0.9800464192046953 -0.1987687505722532 0  -0.9758730916235354 -0.2183385193801655 0  -0.9713090317615876 -0.2378208670793363 0  -0.9663560670342556 -0.2572079930835848 0  -0.9610161805715396 -0.276492134932786 0  -0.9552915104240066 -0.2956655714008991 0  -0.9491843487067305 -0.3147206255874881 0  -0.9426971406815464 -0.3336496679914978 0  -0.9358324837779862 -0.3524451195660471 0  -0.9285931265532875 -0.371099454753022 0  -0.9209819675918909 -0.3896052044962557 0  -0.9130020543448704 -0.407954959232078 0  -0.9046565819097541 -0.4261413718560548 0  -0.8959488917512338 -0.4441571606647086 0  -0.8868824703632655 -0.4619951122710623 0  -0.8774609478731046 -0.4796480844928214 0  -0.8676880965878293 -0.4971090092120538 0  -0.8575678294839373 -0.5143708952052095 0  -0.84710419864062 -0.5314268309423537 0  -0.8363013936173395 -0.5482699873544929 0  -0.8251637397763596 -0.5648936205678838 0  -0.8136956965509061 -0.5812910746042259 0  -0.8019018556596399 -0.5974557840456699 0  -0.7897869392681682 -0.61338127666356 0  -0.777355798098326 -0.6290611760098652 0  -0.7646134094859816 -0.6444892039702625 0  -0.7515648753881492 -0.6596591832778468 0  -0.7382154203402048 -0.6745650399864603 0  -0.7245703893640192 -0.6892008059026583 0  -0.7106352458278522 -0.7035606209753272 0  -0.6964155692588621 -0.7176387356420046 0  -0.6819170531091017 -0.7314295131309637 0  -0.667145502475907 -0.7449274317181303 0  -0.6521068317775756 -0.758127086937944 0  -0.6368070623852792 -0.7710231937472641 0  -0.6212523202121544 -0.7836105886414596 0  -0.6054488332605283 -0.795884231721841 0  -0.5894029291282762 -0.8078392087135956 0  -0.5731210324752977 -0.8194707329334274 0  -0.5566096624511304 -0.8307741472061095 0  -0.5398754300847344 -0.8417449257291802 0  -0.5229250356374798 -0.8523786758850437 0  -0.5057652659204195 -0.8626711399997379 0  -0.4884029915768943 -0.872618197047678 0  -0.4708451643315825 -0.8822158643016828 0  -0.4530988142070805 -0.8914602989276289 0  -0.4351710467091333 -0.900347799523094 0  -0.4170690399816467 -0.9088748075993677 0  -0.3988000419326073 -0.9170379090062475 0  -0.3803713673320777 -0.9248338352990366 0  -0.3617903948834162 -0.9322594650472055 0  -0.3430645642688988 -0.9393118250841893 0  -0.3242013731709283 -0.9459880916978207 0  -0.3052083742700169 -0.9522855917609241 0  -0.2860931722207477 -0.9582018038016155 0  -0.2668634206069305 -0.963734359012881 0  -0.2475268188771631 -0.968881042201029 0  -0.2280911092620301 -0.9736397926726376 0  -0.2085640736741706 -0.9780087050596407 0  -0.1889535305924619 -0.9819860300822225 0  -0.1692673319315544 -0.9855701752492173 0  -0.1495133598980269 -0.9887597054957302 0  -0.1296995238344092 -0.9915533437577262 0  -0.1098337570523396 -0.9939499714833577 0  -0.08992401365612945 -0.9959486290808237 0  -0.06997826535799691 -0.9975485163025836 0  -0.05000449828625168 -0.9987489925657699 0  -0.030010709787
[...]
<PointData  Scalars="Displacement"> 
<DataArray  type="Float64"  Name="Displacement"  format="ascii">0.0000000000000000e+00  0.0000000000000000e+00  0.0000000000000000e+00  0.0000000000000000e+00  0.0000000000000000e+00  0.0000000000000000e+00  0.0000000000000000e+00  0.0000000000000000e+00  0.0000000000000000e+00  0.0000000000000000e+00  0.0000000000000000e+00  0.0000000000000000e+00  0.0000000000000000e+00  0.0000000000000000e+00  0.0000000000000000e+00  0.0000000000000000e+00  0.0000000000000000e+00  0.0000000000000000e+00  0.0000000000000000e+00  0.0000000000000000e+00  0.0000000000000000e+00  0.0000000000000000e+00  0.0000000000000000e+00  0.0000000000000000e+00  0.0000000000000000e+00  0.0000000000000000e+00  0.0000000000000000e+00  0.0000000000000000e+00  0.0000000000000000e+00  0.0000000000000000e+00  0.0000000000000000e+00  0.0000000000000000e+00  0.0000000000000000e+00  0.0000000000000000e+00  0.0000000000000000e+00  0.0000000000000000e+00  0.0000000000000000e+00  0.0000000000000000e+00  0.0000000000000000e+00  0.0000000000000000e+00  0.0000000000000000e+00  0.0000000000000000e+00  0.0000000000000000e+00  0.0000000000000000e+00  0.0000000000000000e+00  0.0000000000000000e+00  0.0000000000000000e+00  0.0000000000000000e+00  0.0000000000000000e+00  0.0000000000000000e+00  0.0000000000000000e+00  0.0000000000000000e+00  0.0000000000000000e+00  0.0000000000000000e+00  0.0000000000000000e+00  0.0000000000000000e+00  0.0000000000000000e+00  0.0000000000000000e+00  0.0000000000000000e+00  0.0000000000000000e+00  0.0000000000000000e+00  0.0000000000000000e+00  0.0000000000000000e+00  0.0000000000000000e+00  0.0000000000000000e+00  0.0000000000000000e+00  0.0000000000000000e+00  0.0000000000000000e+00  0.0000000000000000e+00  0.0000000000000000e+00  0.0000000000000000e+00  0.0000000000000000e+00  0.0000000000000000e+00  0.0000000000000000e+00  0.0000000000000000e+00  0.0000000000000000e+00  0.0000000000000000e+00  0.0000000000000000e+00  0.0000000000000000e+00  0.0000000000000000e+00  0.0000000000000000e+00  0.0000000000000000e+00  0.0000000000000000e+00  0.0000000000000000e+00  0.0000000000000000e+00  0.0000000000000000e+00  0.0000000000000000e+00  0.0000000000000000e+00  0.0000000000000000e+00  0.0000000000000000e+00  0.0000000000000000e+00  0.0000000000000000e+00  0.0000000000000000e+00  0.0000000000000000e+00  0.0000000000000000e+00  0.0000000000000000e+00  0.0000000000000000e+00  0.0000000000000000e+00  0.0000000000000000e+00  0.0000000000000000e+00  0.0000000000000000e+00  0.0000000000000000e+00  0.0000000000000000e+00  0.0000000000000000e+00  0.0000000000000000e+00  0.0000000000000000e+00  0.0000000000000000e+00  0.0000000000000000e+00  0.0000000000000000e+00  0.0000000000000000e+00  0.0000000000000000e+00  0.0000000000000000e+00  0.0000000000000000e+00  0.0000000000000000e+00  0.0000000000000000e+00  0.0000000000000000e+00  0.0000000000000000e+00  0.0000000000000000e+00  0.0000000000000000e+00  0.0000000000000000e+00  0.0000000000000000e+00  0.0000000000000000e+00  0.0000000000000000e+00  0.0000000000000000e+00  0.0000000000000000e+00  0.0000000000000000e+00  0.0000000000000000e+00  0.0000000000000000e+00  0.0000000000000000e+00  0.0000000000000000e+00  0.0000000000000000e+00  0.0000000000000000e+00  0.0000000000000000e+00  0.0000000000000000e+00  0.0000000000000000e+00  0.0000000000000000e+00  0.0000000000000000e+00  0.0000000000000000e+00  0.0000000000000000e+00  0.0000000000000000e+00  0.0000000000000000e+00  0.0000000000000000e+00  0.0000000000000000e+00  0.0000000000000000e+00  0.0000000000000000e+00  0.0000000000000000e+00  0.0000000000000000e+00  0.0000000000000000e+00  0.0000000000000000e+00  0.0000000000000000e+00  0.0000000000000000e+00  0.0000000000000000e+00  0.0000000000000000e+00  0.0000000000000000e+00  0.0000000000000000e+00  0.0000000000000000e+00  0.0000000000000000e+00  0.0000000000000000e+00  0.0000000000000000e+00  0.0000000000000000e+00  0.0000000000000000e+00  0.0000000000000000e+00  0.0000000000000000e+00  0.0000000000000000e+00  0.0000000000000000e+00  0.0000000000000000e+00  0.0000000000000000e+00  0.0000000000000000e+00  0.0000000000000000e+00  0.0000000000000000e+00  0.0000000000000000e+00  0.0000000000000000e+00  0.0000000000000000e+00  0.0000000000000000e+00  0.0000000000000000e+00  0.0000000000000000e+00  0.0000000000000000e+00  0.0000000000000000e+00  0.0000000000000000e+00  0.0000000000000000e+00  0.0000000000000000e+00  0.0000000000000000e+00  0.0000000000000000e+00  0.0000000000000000e+00  0.0000000000000000e+00  0.0000000000000000e+00  0.0000000000000000e+00  0.0000000000000000e+00  0.0000000000000000e+00  0.0000000000000000e+00  0.0000000000000000e+00  0.0000000000000000e+00  0.0000000000000000e+00  0.0000000000000000e+00  0.0000000000000000e+00  0.0000000000000000e+00  0.0000000000000000e+00  0.0000000000000000e+00  0.0000000000000000e+00  0.0000000000000000e+00  0.0000000000000000e+00  0.0000000000000000e+00  0.0000000000000000e+00  0.0000000000000000e+00  0.0000000000000000e+00  0.0000000000000000e+00  0.0000000000000000e+00  0.0000000000000000e+00  0.0000000000000000e+00  0.0000000000000000e+00  0.0000000000000000e+00  0.0000000000000000e+00  0.0000000000000000e+00  0.0000000000000000e+00  0.0000000000000000e+00  0.0000000000000000e+00  0.0000000000000000e+00  0.0000000000000000e+00  0.0000000000000000e+00  0.0000000000000000e+00  0.0000000000000000e+00  0.0000000000000000e+00  0.0000000000000000e+00  0.0000000000000000e+00  0.0000000000000000e+00  0.0000000000000000e+00  0.0000000000000000e+00  0.0000000000000000e+00  0.0000000000000000e+00  0.0000000000000000e+00  0.0000000000000000e+00  0.0000000000000000e+00  0.0000000000000000e+00  0.0000000000000000e+00  0.0000000000000000e+00  0.0000000000000000e+00  0.0000000000000000e+00  0.0000000000000000e+00  0.0000000000000000e+00  0.0000000000000000e+00  0.0000000000000000e+00  0.0000000000000000e+00  0.0000000000000000e+00  0.0000000000000000e+00  0.0000000000000000e+00  0.0000000000000000e+00  0.0000000000000000e+00  0.0000000000000000e+00  0.0000000000000000e+00  0.0000000000000000e+00  0.0000000000000000e+00  0.0000000000000000e+00  0.0000000000000000e+00  0.0000000000000000e+00  0.0000000000000000e+00  0.0000000000000000e+00  0.0000000000000000e+00  0.0000000000000000e+00  0.0000000000000000e+00  0.0000000000000000e+00  0.0000000000000000e+00  0.0000000000000000e+00  0.0000000000000000e+00  0.0000000000000000e+00  0.0000000000000000e+00  0.0000000000000000e+00  0.0000000000000000e+00  0.0000000000000000e+00  0.0000000000000000e+00  0.0000000000000000e+00  0.0000000000000000e+00  0.0000000000000000e+00  0.0000000000000000e+00  0.0000000000000000e+00  0.0000000000000000e+00  0.0000000000000000e+00  0.0000000000000000e+00  0.0000000000000000e+00  0.0000000000000000e+00  0.0000000000000000e+00  0.0000000000000000e+00  0.0000000000000000e+00  0.0000000000000000e+00  0.0000000000000000e+00  0.0000000000000000e+00  0.0000000000000000e+00  0.0000000000000000e+00  0.0000000000000000e+00  0.0000000000000000e+00  0.0000000000000000e+00  0.0000000000000000e+00  0.0000000000000000e+00  0.0000000000000000e+00  0.0000000000000000e+00  0.0000000000000000e+00  0.0000000000000000e+00  0.0000000000000000e+00  0.0000000000000000e+00  0.0000000000000000e+00  0.0000000000000000e+00  0.0000000000000000e+00  0.0000000000000000e+00  0.0000000000000000e+00  0.0000000000000000e+00  0.0000000000000000e+00  0.0000000000000000e+00  0.0000000000000000e+00  0.0000000000000000e+00  0.0000000000000000e+00  0.0000000000000000e+00  0.0000000000000000e+00  0.0000000000000000e+00  0.0000000000000000e+00  0.0000000000000000e+00  -3.5529130443179652e+80  1.0887807010113589e+75  -3.0080712353323584e+76  -1.1640113827474895e+76  -3.0954249097568771e+76  6.1612878339878856e+74  -1.3238570524775437e+74  2.6601134024426889e+71  7.1755978729006257e+71  -4.4492475561272119e+70  -1.2389108551420693e+71  -1.3056525549099884e+80  -5.8988008276256254e+70  9.5526201757059924e+68  3.7185881525988988e+80  -2.6915928637839170e+80  9.4458276543810767e+68  -1.6956626547529450e+69  2.2827423116011291e+68  4.7641206674076489e+68  -1.5201595771967207e+68  -2.8585458078667405e+68  -3.3373158009401566e+68  4.1860354939227435e+77  -1.4831115011525556e+79  -8.6768816673302446e+79  2.8132865084317271e+69  -3.0412157374486371e+67  2.4844337447998114e+68  -2.2493823204306617e+77  -7.6914243153569627e+67  6.3911582595500777e+79  -3.1131323270888462e+81  -6.1316274316537439e+77  -3.9991267086983508e+67  -8.6276326275673364e+66  -1.5289919854324119e+66  -3.7093996697718960e+66  -1.4890539479209854e+67  3.9738520867496348e+74  -2.4491718619158250e+75  1.7785507084307196e+73  -1.8202559674301513e+73  4.7542639578192306e+80  2.3756738535460704e+66  3.3966466033654088e+66  -1.6458343510279184e+65  -2.0511730950978497e+66  2.7569975488714844e+73  2.0872646907787642e+73  2.0586397842721199e+71  4.7654354929750837e+73  -3.6340569250068717e+73  -3.1032990793452979e+76  -3.2924568338574187e+67  2.8868313961610896e+80  1.7316169205382098e+66  -7.3239186469062036e+65  1.6510445662408479e+76  4.9535571871794996e+65  -1.0064356711843148e+66  -1.1991291437781716e+70  -5.5243351504765034e+65  2.0136730591938151e+65  2.6341042271958448e+80  -1.0331250540438785e+81  2.3653472436141200e+80  1.7326678489034552e+76  2.2397565596319086e+79  2.9472966218252530e+79  5.5146893071052242e+78  -1.7108467874540356e+74  -1.5335685317708087e+73  -2.2130517301644116e+73  -7.9924997404194910e+71  -3.9922553451429202e+78  1.6658932563707518e+65  9.5960239703733807e+76  -1.4916698349292153e+79  3.4303874712755724e+72  5.6007139896826992e+63  3.4224294824691771e+77  2.2564109224127762e+65  -2.9325034786094039e+65  5.5376625835358857e+64  -4.8492068042969738e+82  -1.2809205174180333e+66  -1.1484246808319862e+64  -1.1044782425854723e+65  -2.0357515681940002e+79  8.6349942639035032e+69  -4.7135756519386367e+65  4.2627036551065916e+70  2.5399829235745141e+63  -1.8177164223415090e+70  1.0180391062687580e+82  -2.0191174551573650e+64  4.4799313341763218e+65  2.0396439003808788e+70  -8.0569460425317928e+68  1.2882101650157319e+72  3.1768377608152618e+70  9.8595827500268131e+64  8.6209040208230368e+76  -3.1556180298890569e+74  2.4174379750210452e+74  2.7411431537789197e+76  7.7759808231403092e+70  -8.9274841719277232e+69  4.3075508600738027e+64  2.4483561455587032e+75  3.8713495068145957e+65  2.7587596440418617e+64  -1.0180239915311650e+74  -9.5856172798573504e+72  9.5827202686507044e+68  -1.5580977355836342e+64  -1.8341975476066584e+64  8.5878888651298451e+63  -6.1494570278824776e+80  1.1333887856521173e+78  -6.5850899470312136e+67  3.1253653317442595e+81  3.5445550115211315e+65  1.1955267319520268e+69  -1.1342998439220611e+70  -2.9888648198381925e+64  2.0857728724715534e+64  2.4164267879337524e+68  -7.5862238811620021e+69  -4.6138083750880079e+71  -5.7382480003713969e+69  -2.5845381905495376e+73  6.7377125007613114e+75  4.5313194485466461e+72  7.7413018318487838e+68  -2.3292650803348598e+65  9.8408778420040660e+82  -5.3766978233697481e+78  2.3454346798984870e+79  1.6617321645139395e+80  -6.6636655412022661e+82  -1.6856377750827665e+67  -1.7786613360842569e+78  2.0458796316488428e+73  -3.3498356045018453e+67  3.5674607428406115e+66  2.2476154791813157e+79  -2.6896601385838895e+82  5.5050068954886780e+71  -1.5793795320170857e+64  -7.0688626443265325e+73  -1.9463701917657423e+79  -4.0918214990477734e+68  1.1448996236420599e+68  -8.5113157744678370e+65  3.8047210906965806e+63  -8.0690711423069109e+68  -1.6363298209823089e+64  -7.2579045814479713e+62  3.2177341448298390e+63  -7.9272337959161798e+66  -3.2447246005753475e+71  2.4442717436749468e+64  2.8351145972059371e+67  -2.7088553699642759e+74  5.0808977832604221e+68  1.0395140429539448e+65  1.4208768458212299e+63  -1.1836505877831412e+68  -4.4663228199895426e+74  -2.4392244283771123e+80  -3.0114823962282911e+67  2.4746855723191590e+78  1.3984306100034504e+63  -2.5790222252266711e+75  -7.5378194064170781e+63  7.2366183615831897e+68  5.2812264810736311e+63  1.5005837794269218e+76  -1.7457745542399281e+67  -2.5977423233030343e+76  3.1377049543480966e+72  -4.5837043717817392e+82  -2.0304120651653742e+63  -3.9449800331766865e+72  3.8608248347587987e+71  -7.2627041944645032e+75  -3.0936204748806040e+63  4.1421380679454829e+66  -4.0323919991328424e+63  7.3398362081572145e+80  -3.8930480116500314e+63  1.2562360263276829e+64  -9.1251193981754979e+75  -1.5196343885147876e+78  -2.1822968674654830e+68  -1.4963805477842578e+68  -1.2048949636898182e+74  -1.2559505163862999e+70  4.4535855594521556e+72  5.0624898706091897e+73  -7.6586496021301827e+74  4.5337578953057394e+70  4.9227395460624498e+72  1.0505048381910400e+68  -2.6640784711547178e+67  -2.1507789688795929e+80  3.9047892857257135e+64  -1.0641928862812531e+68  -2.6182153915178622e+68  3.3813077691141828e+80  -2.8430273950556944e+79  2.0453015337730171e+65  -2.1131804440855738e+63  3.8260518151772161e+68  -1.1234055142670061e+77  -4.6220055153872619e+63  -5.5269861912550835e+70  4.0481200910379003e+71  3.4486547138000423e+66  -3.7153756406782480e+70  2.7765307585290367e+76  4.7047718597976933e+71  8.5085444093070110e+71  -3.3611494202812543e+63  1.9421644248885416e+69  -5.5976075266852655e+63  1.2337220480527860e+69  -5.0101904074639321e+62  4.9017956492142046e+63  -2.2111711078515864e+64  1.1484468565158839e+63  -6.6477905091753541e+65  -7.1409888130236026e+62  -1.1238819187680488e+75  -4.7203980893599514e+72  -1.7681692656368891e+67  -1.5167736056281135e+66  2.0086069394974007e+79  -1.3243731391360328e+80  -1.1727276196442668e+72  -2.2053440395093632e+72  -6.0871140074693436e+63  -2.9946128833209731e+75  -1.7829557448125671e+65  3.6047819554620972e+63  -9.0734030642714965e+62  -1.3571738436882456e+77  6.0899402129267566e+73  6.1530918107417597e+72  2.8306962360413503e+73  9.3421280145047423e+80  -9.2222892064843339e+80  -8.5872028717798086e+65  4.0514605639234824e+78  -1.1031121459510273e+69  1.4411987082395469e+75  -1.3805259031736254e+63  -7.3831303473562417e+62  -1.3371227067775757e+63  2.2752509383229731e+70  4.4967619922307565e+66  -1.2829324802984595e+74  4.5863916082372399e+76  -2.5253163738792125e+77  2.9280235300573454e+66  3.9407358274784415e+64  1.5027280630849585e+64  2.8663578223075959e+73  -6.4299883099680198e+60  2.8021743414909293e+79  -2.0955396438608959e+77  2.7720502952319048e+69  -2.7986000905161034e+67  3.8413424277527272e+69  1.4670908962153411e+76  3.0954412341777345e+79  1.0843760704232248e+78  1.7109510293072258e+77  -1.6797093422627687e+79  1.2361425575756368e+79  -7.8259806644996271e+81  -3.7132122103320074e+72  1.5068918964828618e+70  1.6520219040914184e+68  -1.0709295360126680e+82  -1.0099580163522182e+64  4.9926314403471382e+65  -3.1052184908739075e+77  -5.6340565755871907e+81  3.0500491382261306e+76  -9.2232174125897381e+72  -1.5651469237476679e+75  -6.6387100818600546e+81  1.4615599588780689e+64  -1.3167674443854785e+76  -6.6169938128970309e+62  -6.8178551150538750e+62  -3.2258824473957561e+63  3.9063475129045937e+79  8.7713904478501109e+78  -1.1389714071169489e+80  -1.9748724198704784e+80  -1.9878130996019661e+71  -1.0626756902926032e+71  5.0963265821686082e+68  -1.2655265421658923e+73  1.9330175755114141e+72  -1.0555997295927768e+72  -7.7807013473086005e+75  1.5867131547513468e+72  6.2374833459806955e+79  -5.8944243368441600e+68  3.2951356924814510e+80  -3.4969474322460680e+79  2.4678506420536187e+72  1.8734490807676845e+69  1.7557108716657925e+70  8.0712458615772920e+61  3.7526816375799526e+67  -3.3935374467234247e+67  4.0580819481199642e+63  -7.1336387233531875e+77  1.7448228271040217e+63  -6.8834024301924095e+62  4.4025924916504136e+65  -5.2479408647070552e+78  -6.2865781134184832e+77  -5.3140814705936330e+80  -1.2090089207351942e+63  -1.6767018977132567e+69  8.1835090848828166e+70  3.1626880614047095e+76  -2.2153116933484794e+77  1.0479169546025069e+69  3.6374456546619704e+76  2.1974513162805754e+78  -8.9544534150514207e+82  4.0738714596292010e+70  1.7156975233797184e+67  -4.0715630026190489e+75  3.0072706105324214e+65  -4.3026320258715641e+65  -1.7406587319231524e+70  -8.5479482773596668e+62  2.9351797015820696e+67  2.4966928220478506e+68  -2.5438534312069282e+61  -5.6261295229689707e+70  -2.0838774931670982e+71  1.8519540878645401e+63  1.7675716466089806e+66  -1.6543131374223395e+61  -1.5051805119607201e+67  1.2137769455047588e+65  -3.8262705082326527e+71  -5.5853486483456185e+81  -3.8242725222056583e+64  -9.5381935475181142e+79  -2.6038321799550330e+80  -3.5653910968807301e+67  -1.6470791291910244e+63  -4.8915526830151705e+72  -1.7237824868298754e+66  -1.1750471626612848e+81  5.1106613705035368e+64  1.5175190900226646e+68  -3.5151353823134532e+80  3.2603099595224974e+66  7.4458638384012412e+61  -2.2702164782004975e+63  1.0290792373460538e+67  -3.8421759358040605e+78  2.9413405477760167e+77  5.9134728576733571e+69  -3.9049550316450019e+64  3.0781273335401629e+80  -6.4974046717354744e+71  -7.5184280178157804e+62  1.0896582501547149e+75  3.6307654803924430e+63  2.0113984621597211e+66  1.3621787640327409e+76  -9.8626319375037197e+62  -5.1269617660868826e+81  -4.7083200895819816e+63  1.1857858307785484e+67  -2.4715862068861678e+62  6.8869055783228100e+76  -1.9117961924748994e+73  2.2366189066911686e+69  4.0943128444022043e+74  -7.5889687481617785e+61  2.0379478582551766e+67  -2.9298784306872842e+76  -4.2420700143197070e+63  -2.5876921601182776e+73  -2.9997143236051723e+69  -3.4544893876485599e+62  -3.8662227362776772e+62  -4.8803693106026398e+74  6.6582097207734483e+64  6.3218384571718623e+76  5.5328064399980780e+68  -6.5414002446104500e+75  -1.1331215715801634e+74  6.1606056645581858e+62  1.4109515467373198e+66  -3.3063992761984770e+66  2.8158607125114644e+65  1.1390935113833457e+66  -1.7278036838669042e+78  1.3168341339318252e+78  -5.4937549960710529e+82  -2.1306139773412461e+78  -4.9057841349451325e+66  -1.1169006389663023e+81  3.8834893858350144e+77  2.1208325420607179e+66  -2.4598719829553003e+62  9.1089898561257275e+61  -8.8645792473812447e+71  4.5216712812242752e+71  -1.7955522540960204e+67  -1.0730962537713798e+78  7.8058672335226454e+69  -1.2114804925418395e+63  2.5309992062074274e+62  1.9371907334492069e+63  -1.9985240162123243e+71  -9.0497608208572207e+65  -8.2428071957744594e+68  6.1894582589451183e+65  -2.5759273124279609e+65  1.8316275675711900e+64  -4.2921058606970785e+71  -9.9846115953998013e+65  -2.0083356284344520e+76  1.1957237471492470e+73  -5.6171600095412062e+74  5.4116671046423415e+72  3.2072634929116435e+74  3.4663810255584804e+76  2.1789297269585590e+66  -2.0096181238062311e+77  -1.5496561884624314e+68  1.8164745334922859e+82  3.4176100947761628e+70  -1.0780162128493557e+76  -4.6053152466217434e+73  -1.9023716257496387e+80  2.4490904965088624e+66  4.3718162163664848e+62  -3.0822409549764216e+63  -1.2581494181113784e+81  -1.5734557992836400e+70  3.2038100170174467e+75  2.5272387602427089e+74  8.2387472583936088e+64  1.4801367385279025e+73  -3.0320728281483609e+62  2.7077237841310384e+81  7.9821014357979349e+80  -4.7581928763253517e+77  1.2087645460804282e+68  2.3284694213603758e+65  1.8687115006142501e+66  -2.7709506196328686e+69  -1.8858335718849088e+70  3.9510630253842308e+73  -1.8983591329170237e+64  -1.1441875683432514e+77  5.9325861112847390e+74  -2.9064182162306910e+67  3.3076588342338501e+81  5.6052384124551799e+67  8.4546057936645993e+73  -9.4960182118752426e+69  2.7845054416513472e+71  2.7328849609851174e+70  -2.3912216092456814e+67  -3.4095665010440676e+62  1.1207150758046595e+65  -1.9684195949393802e+61  -3.1825173120226444e+64  -2.9525739859095609e+63  -6.5484612455236462e+77  1.4046289577372473e+67  5.2909342871906583e+72  -6.8711308994639743e+67  -5.9066596112706733e+77  5.7807203259441093e+74  -1.2429502064794361e+80  -2.9275226381312072e+63  -5.8543365890199059e+77  -1.8810556932871351e+62  -2.3213253655668818e+61  -1.7464260738839502e+63  1.5730497010469453e+74  4.9262337318499488e+64  -4.8852244446987566e+64  6.2938153588978279e+74  1.5700919552208263e+7