<?xml version="1.0"?>
<VTKFile type="UnstructuredGrid"  version="0.1"  >
<UnstructuredGrid>
<Piece  NumberOfPoints="20054" NumberOfCells="39478">
<Points>
<DataArray  type="Float64"  NumberOfComponents="3"  format="ascii">1 0 0  0.9997998037428526 0.02000880895389431 0  0.9991992951284931 0.04000960653046352 0  0.9981987145960756 0.05999438456007805 0  0.9967984627705549 0.07995514128721501 0  0.9949991003022806 0.09988388457430118 0  0.9928013476425149 0.1197726351017051 0  0.9902060847549715 0.139613429562597 0  0.987214350763483 0.1593983238513969 0  0.9838273435359444 0.1791193962445356 0  0.9800464192046954 0.198768750572253 0  0.9758730916235354 0.2183385193801655 0  0.9713090317615876 0.237820867079336 0  0.9663560670342555 0.2572079930835849 0  0.9610161805715396 0.2764921349327862 0  0.9552915104240066 0.2956655714008991 0  0.9491843487067304 0.3147206255874884 0  0.9426971406815462 0.3336496679914983 0  0.9358324837779861 0.3524451195660473 0  0.9285931265532873 0.3710994547530225 0  0.9209819675918909 0.3896052044962556 0  0.9130020543448703 0.4079549592320781 0  0.9046565819097542 0.4261413718560547 0  0.8959488917512338 0.4441571606647087 0  0.8868824703632656 0.4619951122710622 0  0.8774609478731046 0.4796480844928215 0  0.8676880965878291 0.4971090092120542 0  0.8575678294839372 0.5143708952052096 0  0.8471041986406199 0.5314268309423539 0  0.8363013936173391 0.5482699873544935 0  0.8251637397763597 0.5648936205678837 0  0.8136956965509062 0.5812910746042258 0  0.8019018556596399 0.5974557840456699 0  0.7897869392681683 0.6133812766635599 0  0.777355798098326 0.6290611760098652 0  0.7646134094859813 0.6444892039702628 0  0.7515648753881492 0.6596591832778468 0  0.7382154203402046 0.6745650399864606 0  0.7245703893640189 0.6892008059026586 0  0.7106352458278521 0.7035606209753273 0  0.6964155692588616 0.7176387356420051 0  0.6819170531091018 0.7314295131309636 0  0.6671455024759069 0.7449274317181303 0  0.6521068317775753 0.7581270869379442 0  0.6368070623852795 0.7710231937472638 0  0.6212523202121545 0.7836105886414595 0  0.6054488332605282 0.795884231721841 0  0.5894029291282759 0.8078392087135958 0  0.5731210324752972 0.8194707329334278 0  0.5566096624511305 0.8307741472061095 0  0.5398754300847343 0.8417449257291802 0  0.5229250356374803 0.8523786758850435 0  0.5057652659204196 0.8626711399997378 0  0.4884029915768944 0.8726181970476778 0  0.4708451643315825 0.8822158643016828 0  0.45309881420708 0.8914602989276292 0  0.4351710467091336 0.9003477995230937 0  0.4170690399816468 0.9088748075993677 0  0.398800041932607 0.9170379090062476 0  0.3803713673320772 0.9248338352990368 0  0.3617903948834157 0.9322594650472057 0  0.3430645642688987 0.9393118250841893 0  0.3242013731709288 0.9459880916978206 0  0.3052083742700172 0.952285591760924 0  0.2860931722207478 0.9582018038016155 0  0.2668634206069304 0.963734359012881 0  0.2475268188771628 0.9688810422010291 0  0.2280911092620296 0.9736397926726377 0  0.2085640736741707 0.9780087050596407 0  0.1889535305924618 0.9819860300822225 0  0.1692673319315541 0.9855701752492174 0  0.1495133598980264 0.9887597054957302 0  0.1296995238344084 0.9915533437577263 0  0.1098337570523395 0.9939499714833577 0  0.08992401365612977 0.9959486290808237 0  0.06997826535799723 0.9975485163025836 0  0.05000449828625179 0.9987489925657699 0  0.03001070978771124 0.9995495772086734 0  0.01000490522562346 0.9999499496831961 0  -0.01000490522562333 0.9999499496831961 0  -0.03001070978771133 0.9995495772086734 0  -0.05000449828625144 0.9987489925657699 0  -0.06997826535799688 0.9975485163025836 0  -0.08992401365612987 0.9959486290808237 0  -0.1098337570523394 0.9939499714833577 0  -0.1296995238344082 0.9915533437577263 0  -0.1495133598980262 0.9887597054957303 0  -0.1692673319315537 0.9855701752492174 0  -0.1889535305924614 0.9819860300822226 0  -0.2085640736741705 0.9780087050596407 0  -0.2280911092620295 0.9736397926726377 0  -0.2475268188771627 0.9688810422010291 0  -0.2668634206069302 0.9637343590128811 0  -0.2860931722207475 0.9582018038016156 0  -0.3052083742700173 0.9522855917609239 0  -0.3242013731709289 0.9459880916978205 0  -0.3430645642688986 0.9393118250841894 0  -0.3617903948834154 0.9322594650472058 0  -0.380371367332077 0.924833835299037 0  -0.3988000419326071 0.9170379090062476 0  -0.4170690399816465 0.9088748075993678 0  -0.4351710467091335 0.9003477995230939 0  -0.4530988142070799 0.8914602989276292 0  -0.4708451643315824 0.8822158643016829 0  -0.4884029915768945 0.8726181970476778 0  -0.5057652659204197 0.8626711399997378 0  -0.5229250356374801 0.8523786758850437 0  -0.5398754300847342 0.8417449257291804 0  -0.5566096624511303 0.8307741472061098 0  -0.5731210324752971 0.8194707329334279 0  -0.589402929128276 0.8078392087135957 0  -0.6054488332605281 0.7958842317218411 0  -0.6212523202121542 0.7836105886414597 0  -0.6368070623852793 0.7710231937472639 0  -0.652106831777575 0.7581270869379444 0  -0.6671455024759069 0.7449274317181304 0  -0.6819170531091018 0.7314295131309636 0  -0.6964155692588616 0.7176387356420052 0  -0.7106352458278521 0.7035606209753273 0  -0.7245703893640187 0.6892008059026588 0  -0.7382154203402043 0.6745650399864608 0  -0.751564875388149 0.6596591832778469 0  -0.7646134094859813 0.6444892039702628 0  -0.7773557980983258 0.6290611760098654 0  -0.7897869392681683 0.6133812766635599 0  -0.8019018556596398 0.59745578404567 0  -0.8136956965509062 0.5812910746042258 0  -0.8251637397763595 0.5648936205678839 0  -0.836301393617339 0.5482699873544935 0  -0.8471041986406197 0.5314268309423542 0  -0.8575678294839372 0.5143708952052097 0  -0.8676880965878292 0.497109009212054 0  -0.8774609478731045 0.4796480844928216 0  -0.8868824703632656 0.4619951122710621 0  -0.8959488917512338 0.4441571606647088 0  -0.904656581909754 0.426141371856055 0  -0.9130020543448703 0.4079549592320783 0  -0.920981967591891 0.3896052044962555 0  -0.9285931265532872 0.3710994547530226 0  -0.9358324837779861 0.3524451195660473 0  -0.9426971406815462 0.3336496679914984 0  -0.9491843487067303 0.3147206255874888 0  -0.9552915104240065 0.2956655714008993 0  -0.9610161805715396 0.2764921349327862 0  -0.9663560670342555 0.2572079930835851 0  -0.9713090317615876 0.2378208670793361 0  -0.9758730916235353 0.2183385193801658 0  -0.9800464192046954 0.198768750572253 0  -0.9838273435359444 0.1791193962445354 0  -0.987214350763483 0.159398323851397 0  -0.9902060847549714 0.1396134295625972 0  -0.9928013476425149 0.1197726351017052 0  -0.9949991003022804 0.09988388457430147 0  -0.9967984627705549 0.07995514128721509 0  -0.9981987145960756 0.05999438456007793 0  -0.9991992951284931 0.04000960653046362 0  -0.9997998037428526 0.02000880895389464 0  -1 1.224646799147353e-16 0  -0.9997998037428526 -0.0200088089538944 0  -0.9991992951284931 -0.04000960653046338 0  -0.9981987145960756 -0.05999438456007812 0  -0.9967984627705549 -0.07995514128721484 0  -0.9949991003022806 -0.09988388457430078 0  -0.9928013476425149 -0.1197726351017049 0  -0.9902060847549715 -0.1396134295625965 0  -0.9872143507634831 -0.1593983238513963 0  -0.9838273435359444 -0.1791193962445356 0  -0.9800464192046953 -0.1987687505722532 0  -0.9758730916235354 -0.2183385193801655 0  -0.9713090317615876 -0.2378208670793363 0  -0.9663560670342556 -0.2572079930835848 0  -0.9610161805715396 -0.276492134932786 0  -0.9552915104240066 -0.2956655714008991 0  -0.9491843487067305 -0.3147206255874881 0  -0.9426971406815464 -0.3336496679914978 0  -0.9358324837779862 -0.3524451195660471 0  -0.9285931265532875 -0.371099454753022 0  -0.9209819675918909 -0.3896052044962557 0  -0.9130020543448704 -0.407954959232078 0  -0.9046565819097541 -0.4261413718560548 0  -0.8959488917512338 -0.4441571606647086 0  -0.8868824703632655 -0.4619951122710623 0  -0.8774609478731046 -0.4796480844928214 0  -0.8676880965878293 -0.4971090092120538 0  -0.8575678294839373 -0.5143708952052095 0  -0.84710419864062 -0.5314268309423537 0  -0.8363013936173395 -0.5482699873544929 0  -0.8251637397763596 -0.5648936205678838 0  -0.8136956965509061 -0.5812910746042259 0  -0.8019018556596399 -0.5974557840456699 0  -0.7897869392681682 -0.61338127666356 0  -0.777355798098326 -0.6290611760098652 0  -0.7646134094859816 -0.6444892039702625 0  -0.7515648753881492 -0.6596591832778468 0  -0.7382154203402048 -0.6745650399864603 0  -0.7245703893640192 -0.6892008059026583 0  -0.7106352458278522 -0.7035606209753272 0  -0.6964155692588621 -0.7176387356420046 0  -0.6819170531091017 -0.7314295131309637 0  -0.667145502475907 -0.7449274317181303 0  -0.6521068317775756 -0.758127086937944 0  -0.6368070623852792 -0.7710231937472641 0  -0.6212523202121544 -0.7836105886414596 0  -0.6054488332605283 -0.795884231721841 0  -0.5894029291282762 -0.8078392087135956 0  -0.5731210324752977 -0.8194707329334274 0  -0.5566096624511304 -0.8307741472061095 0  -0.5398754300847344 -0.8417449257291802 0  -0.5229250356374798 -0.8523786758850437 0  -0.5057652659204195 -0.8626711399997379 0  -0.4884029915768943 -0.872618197047678 0  -0.4708451643315825 -0.8822158643016828 0  -0.4530988142070805 -0.8914602989276289 0  -0.4351710467091333 -0.900347799523094 0  -0.4170690399816467 -0.9088748075993677 0  -0.3988000419326073 -0.9170379090062475 0  -0.3803713673320777 -0.9248338352990366 0  -0.3617903948834162 -0.9322594650472055 0  -0.3430645642688988 -0.9393118250841893 0  -0.3242013731709283 -0.9459880916978207 0  -0.3052083742700169 -0.9522855917609241 0  -0.2860931722207477 -0.9582018038016155 0  -0.2668634206069305 -0.963734359012881 0  -0.2475268188771631 -0.968881042201029 0  -0.2280911092620301 -0.9736397926726376 0  -0.2085640736741706 -0.9780087050596407 0  -0.1889535305924619 -0.9819860300822225 0  -0.1692673319315544 -0.9855701752492173 0  -0.1495133598980269 -0.9887597054957302 0  -0.1296995238344092 -0.9915533437577262 0  -0.1098337570523396 -0.9939499714833577 0  -0.08992401365612945 -0.9959486290808237 0  -0.06997826535799691 -0.9975485163025836 0  -0.05000449828625168 -0.9987489925657699 0  -0.030010709787
[...]
<PointData  Scalars="Displacement"> 
<DataArray  type="Float64"  Name="Displacement"  format="ascii">0.0000000000000000e+00  0.0000000000000000e+00  0.0000000000000000e+00  0.0000000000000000e+00  0.0000000000000000e+00  0.0000000000000000e+00  0.0000000000000000e+00  0.0000000000000000e+00  0.0000000000000000e+00  0.0000000000000000e+00  0.0000000000000000e+00  0.0000000000000000e+00  0.0000000000000000e+00  0.0000000000000000e+00  0.0000000000000000e+00  0.0000000000000000e+00  0.0000000000000000e+00  0.0000000000000000e+00  0.0000000000000000e+00  0.0000000000000000e+00  0.0000000000000000e+00  0.0000000000000000e+00  0.0000000000000000e+00  0.0000000000000000e+00  0.0000000000000000e+00  0.0000000000000000e+00  0.0000000000000000e+00  0.0000000000000000e+00  0.0000000000000000e+00  0.0000000000000000e+00  0.0000000000000000e+00  0.0000000000000000e+00  0.0000000000000000e+00  0.0000000000000000e+00  0.0000000000000000e+00  0.0000000000000000e+00  0.0000000000000000e+00  0.0000000000000000e+00  0.0000000000000000e+00  0.0000000000000000e+00  0.0000000000000000e+00  0.0000000000000000e+00  0.0000000000000000e+00  0.0000000000000000e+00  0.0000000000000000e+00  0.0000000000000000e+00  0.0000000000000000e+00  0.0000000000000000e+00  0.0000000000000000e+00  0.0000000000000000e+00  0.0000000000000000e+00  0.0000000000000000e+00  0.0000000000000000e+00  0.0000000000000000e+00  0.0000000000000000e+00  0.0000000000000000e+00  0.0000000000000000e+00  0.0000000000000000e+00  0.0000000000000000e+00  0.0000000000000000e+00  0.0000000000000000e+00  0.0000000000000000e+00  0.0000000000000000e+00  0.0000000000000000e+00  0.0000000000000000e+00  0.0000000000000000e+00  0.0000000000000000e+00  0.0000000000000000e+00  0.0000000000000000e+00  0.0000000000000000e+00  0.0000000000000000e+00  0.0000000000000000e+00  0.0000000000000000e+00  0.0000000000000000e+00  0.0000000000000000e+00  0.0000000000000000e+00  0.0000000000000000e+00  0.0000000000000000e+00  0.0000000000000000e+00  0.0000000000000000e+00  0.0000000000000000e+00  0.0000000000000000e+00  0.0000000000000000e+00  0.0000000000000000e+00  0.0000000000000000e+00  0.0000000000000000e+00  0.0000000000000000e+00  0.0000000000000000e+00  0.0000000000000000e+00  0.0000000000000000e+00  0.0000000000000000e+00  0.0000000000000000e+00  0.0000000000000000e+00  0.0000000000000000e+00  0.0000000000000000e+00  0.0000000000000000e+00  0.0000000000000000e+00  0.0000000000000000e+00  0.0000000000000000e+00  0.0000000000000000e+00  0.0000000000000000e+00  0.0000000000000000e+00  0.0000000000000000e+00  0.0000000000000000e+00  0.0000000000000000e+00  0.0000000000000000e+00  0.0000000000000000e+00  0.0000000000000000e+00  0.0000000000000000e+00  0.0000000000000000e+00  0.0000000000000000e+00  0.0000000000000000e+00  0.0000000000000000e+00  0.0000000000000000e+00  0.0000000000000000e+00  0.0000000000000000e+00  0.0000000000000000e+00  0.0000000000000000e+00  0.0000000000000000e+00  0.0000000000000000e+00  0.0000000000000000e+00  0.0000000000000000e+00  0.0000000000000000e+00  0.0000000000000000e+00  0.0000000000000000e+00  0.0000000000000000e+00  0.0000000000000000e+00  0.0000000000000000e+00  0.0000000000000000e+00  0.0000000000000000e+00  0.0000000000000000e+00  0.0000000000000000e+00  0.0000000000000000e+00  0.0000000000000000e+00  0.0000000000000000e+00  0.0000000000000000e+00  0.0000000000000000e+00  0.0000000000000000e+00  0.0000000000000000e+00  0.0000000000000000e+00  0.0000000000000000e+00  0.0000000000000000e+00  0.0000000000000000e+00  0.0000000000000000e+00  0.0000000000000000e+00  0.0000000000000000e+00  0.0000000000000000e+00  0.0000000000000000e+00  0.0000000000000000e+00  0.0000000000000000e+00  0.0000000000000000e+00  0.0000000000000000e+00  0.0000000000000000e+00  0.0000000000000000e+00  0.0000000000000000e+00  0.0000000000000000e+00  0.0000000000000000e+00  0.0000000000000000e+00  0.0000000000000000e+00  0.0000000000000000e+00  0.0000000000000000e+00  0.0000000000000000e+00  0.0000000000000000e+00  0.0000000000000000e+00  0.0000000000000000e+00  0.0000000000000000e+00  0.0000000000000000e+00  0.0000000000000000e+00  0.0000000000000000e+00  0.0000000000000000e+00  0.0000000000000000e+00  0.0000000000000000e+00  0.0000000000000000e+00  0.0000000000000000e+00  0.0000000000000000e+00  0.0000000000000000e+00  0.0000000000000000e+00  0.0000000000000000e+00  0.0000000000000000e+00  0.0000000000000000e+00  0.0000000000000000e+00  0.0000000000000000e+00  0.0000000000000000e+00  0.0000000000000000e+00  0.0000000000000000e+00  0.0000000000000000e+00  0.0000000000000000e+00  0.0000000000000000e+00  0.0000000000000000e+00  0.0000000000000000e+00  0.0000000000000000e+00  0.0000000000000000e+00  0.0000000000000000e+00  0.0000000000000000e+00  0.0000000000000000e+00  0.0000000000000000e+00  0.0000000000000000e+00  0.0000000000000000e+00  0.0000000000000000e+00  0.0000000000000000e+00  0.0000000000000000e+00  0.0000000000000000e+00  0.0000000000000000e+00  0.0000000000000000e+00  0.0000000000000000e+00  0.0000000000000000e+00  0.0000000000000000e+00  0.0000000000000000e+00  0.0000000000000000e+00  0.0000000000000000e+00  0.0000000000000000e+00  0.0000000000000000e+00  0.0000000000000000e+00  0.0000000000000000e+00  0.0000000000000000e+00  0.0000000000000000e+00  0.0000000000000000e+00  0.0000000000000000e+00  0.0000000000000000e+00  0.0000000000000000e+00  0.0000000000000000e+00  0.0000000000000000e+00  0.0000000000000000e+00  0.0000000000000000e+00  0.0000000000000000e+00  0.0000000000000000e+00  0.0000000000000000e+00  0.0000000000000000e+00  0.0000000000000000e+00  0.0000000000000000e+00  0.0000000000000000e+00  0.0000000000000000e+00  0.0000000000000000e+00  0.0000000000000000e+00  0.0000000000000000e+00  0.0000000000000000e+00  0.0000000000000000e+00  0.0000000000000000e+00  0.0000000000000000e+00  0.0000000000000000e+00  0.0000000000000000e+00  0.0000000000000000e+00  0.0000000000000000e+00  0.0000000000000000e+00  0.0000000000000000e+00  0.0000000000000000e+00  0.0000000000000000e+00  0.0000000000000000e+00  0.0000000000000000e+00  0.0000000000000000e+00  0.0000000000000000e+00  0.0000000000000000e+00  0.0000000000000000e+00  0.0000000000000000e+00  0.0000000000000000e+00  0.0000000000000000e+00  0.0000000000000000e+00  0.0000000000000000e+00  0.0000000000000000e+00  0.0000000000000000e+00  0.0000000000000000e+00  0.0000000000000000e+00  0.0000000000000000e+00  0.0000000000000000e+00  0.0000000000000000e+00  0.0000000000000000e+00  0.0000000000000000e+00  0.0000000000000000e+00  0.0000000000000000e+00  0.0000000000000000e+00  0.0000000000000000e+00  0.0000000000000000e+00  0.0000000000000000e+00  0.0000000000000000e+00  0.0000000000000000e+00  0.0000000000000000e+00  0.0000000000000000e+00  0.0000000000000000e+00  0.0000000000000000e+00  0.0000000000000000e+00  0.0000000000000000e+00  0.0000000000000000e+00  0.0000000000000000e+00  0.0000000000000000e+00  0.0000000000000000e+00  0.0000000000000000e+00  0.0000000000000000e+00  0.0000000000000000e+00  0.0000000000000000e+00  0.0000000000000000e+00  0.0000000000000000e+00  0.0000000000000000e+00  0.0000000000000000e+00  0.0000000000000000e+00  0.0000000000000000e+00  0.0000000000000000e+00  0.0000000000000000e+00  0.0000000000000000e+00  0.0000000000000000e+00  0.0000000000000000e+00  0.0000000000000000e+00  0.0000000000000000e+00  0.0000000000000000e+00  0.0000000000000000e+00  0.0000000000000000e+00  0.0000000000000000e+00  0.0000000000000000e+00  0.0000000000000000e+00  0.0000000000000000e+00  0.0000000000000000e+00  0.0000000000000000e+00  0.0000000000000000e+00  0.0000000000000000e+00  0.0000000000000000e+00  -1.0304438938764139e+294  3.3267009444415794e+291  1.2296552106781748e+292  -6.1200194686069838e+296  1.0509153751683059e+289  -1.1870523802760381e+296  4.0584896768284729e+291  7.3092695756752346e+287  2.1675054418183089e+290  -9.0068110147699382e+286  3.4403589911889695e+289  -1.8645287048307357e+296  -6.7826846229247926e+291  -2.3248640390114099e+285  2.3318995682566673e+292  -2.7127834119250267e+297  1.1966815965824966e+288  2.6586826021500137e+289  -9.2021263141621684e+286  1.2798690978537947e+290  8.0466792268569298e+283  -3.0501997083322996e+285  4.4662755225225268e+285  -1.6646601252806397e+293  6.1526554879536729e+297  8.0960817297993725e+291  2.2824287850340112e+287  -7.1932932233644934e+287  2.6694174448209305e+289  6.3924369777665594e+292  2.1085101247357886e+287  -4.2168083439767634e+297  -5.6376695915190411e+297  -1.3758077133733285e+299  -1.7350714841772607e+284  6.9714465284325112e+283  -5.9444024042139461e+282  -2.3318806246313564e+285  -1.6970440436385649e+287  2.6604474269387369e+291  -9.6639779109419122e+292  1.0430009759451624e+289  7.9387355731524416e+291  -3.2146335841727356e+296  -1.2032230155044288e+283  -7.0594522356018422e+283  2.5135871688788938e+284  -2.9217635270266456e+282  1.3008214197829546e+290  2.1954208866712501e+290  4.6451797715021349e+292  1.3216152738789129e+288  -2.1024201968679088e+292  1.5423066609330716e+295  9.9598014237840297e+290  -3.3509480553996670e+293  -3.2503740652167940e+284  -1.5670160903510281e+287  3.7435772532788835e+296  2.8374186990101444e+290  -9.6059395400724311e+286  3.5720501569976448e+286  1.2748692376906197e+285  2.6570813088585465e+282  -4.4274664372472635e+292  7.2930329139615254e+292  6.0304709722140523e+296  2.1672435577254220e+292  9.2735495021121721e+295  2.4615812044160531e+291  3.1898619330673786e+295  4.6033491908676076e+288  -1.2930744914229899e+294  1.0565795676676930e+288  4.0144973023785860e+292  2.9217232039304032e+290  -7.2971776883036991e+285  -2.0388496136887338e+296  -5.3501517578505239e+295  -6.7045567883341582e+283  1.9439898318117914e+286  -7.0370034743989818e+292  -1.5965336860840252e+287  -2.8354790366681341e+280  -1.8426871292647712e+282  -1.4551981696886352e+296  -1.2347997104202152e+284  -1.2589698449383711e+285  4.2202882318248524e+283  -1.6943258514674413e+292  1.1489133477144665e+287  4.9945564538843300e+282  -5.6926056010270674e+291  -1.7946171489461624e+282  1.2964130906953652e+288  2.3734977083171665e+298  1.3694744685060889e+285  -1.2348095578005573e+282  4.2772914972639484e+287  -9.4372158236089256e+284  3.5285961431806326e+288  -2.3478489351753165e+289  -5.3479037850647972e+283  1.8761097715061146e+293  -7.9573868688435651e+290  1.6174730530735675e+291  -5.6803801168337205e+294  -4.3373217411155970e+288  7.2696476846285725e+288  1.3855917062362142e+285  -3.1403827490563446e+294  7.9320347413193140e+291  -7.2641824979841155e+281  5.5262957343558299e+292  9.4111029051823634e+293  -4.3078632168158961e+284  9.9117606633597120e+284  -3.7707760309405276e+283  -4.3222549658287729e+280  2.4056569976120943e+293  -5.4570885959182679e+292  -1.1079787669651249e+287  6.5127297154686784e+297  8.5136533615904990e+287  7.3827419455047058e+290  3.2508787969147118e+290  -8.0622644733598021e+280  8.0065496351004851e+285  6.0073702345256266e+288  -9.6738666657210482e+290  3.9649824834677700e+288  -4.6747476947718483e+287  -1.8591199230198403e+290  4.1913515760627187e+293  -5.8601915254517845e+286  1.6925391318576857e+284  -4.5538579191842434e+283  -3.0053424193631780e+301  -1.0361927214222789e+295  -1.1533835255237488e+294  -3.4182084101476173e+295  -2.1907018797957778e+299  8.7953473344641481e+285  -2.5407914898695582e+299  -9.8909146293514821e+288  -2.7326185613622306e+284  -7.2988575882096293e+284  1.0609494038797551e+294  7.1982140142012993e+293  6.4957763126523408e+287  6.9435478912359940e+280  -4.4764684350100423e+294  4.7927287827239529e+299  -1.2704452538134699e+282  -1.9067247104705190e+287  -1.6484087866007275e+282  1.0074046885397230e+283  7.6199614674224148e+285  -1.6704594877036549e+284  2.5992638010275169e+282  3.2362524720561500e+282  1.3106735704950018e+287  -2.0261157162868354e+292  9.4752295476322605e+284  2.5092599956603546e+288  4.2124340793241477e+294  1.2506983396458214e+290  1.9088293412287179e+282  8.7046823486753373e+279  2.0790892569419203e+286  1.9582043067412555e+291  -3.1251720950329680e+293  -1.5466632288258288e+286  8.2599479756040083e+294  -1.1609277542493518e+282  -7.8615079857190579e+288  -2.6272233382712209e+282  -1.1378905530512486e+286  7.2598969581902470e+280  -2.3230947804082034e+290  -8.1126940655577030e+285  -7.7041150876317592e+292  5.8732630696345659e+287  5.5057064341485522e+294  -4.4862741217000883e+282  5.1165419485239128e+289  9.2468487685110010e+289  1.2738058768448690e+294  -1.7692350039468978e+281  9.1351385647767534e+283  1.6753893579768000e+287  -1.4119816935817513e+298  -5.1436561819701454e+280  -7.6864302731903448e+287  -1.2429897508842733e+297  2.7840539336998858e+297  1.0611787012841300e+286  -7.7188261088777034e+286  9.2007669913833330e+294  1.0716769846880492e+291  -3.2879081910205713e+291  -1.3824395050936120e+290  -2.6442362145035954e+293  -7.9387121627044565e+288  -5.1257189835768941e+289  -4.2678389722776586e+285  -1.3726321173083485e+284  9.4049270575820560e+293  -1.5709830982134532e+286  -4.3435337673310089e+284  -1.0286514069660356e+285  -5.5827163900558364e+294  4.0639219772816637e+291  -1.4410718510645004e+289  1.9498227422616038e+279  2.2158897508130955e+289  6.5808872694641517e+295  -1.9131806886684626e+288  6.0136558894540355e+287  1.8038372331306764e+287  -1.3534553470764492e+283  6.2199052342059131e+291  8.8204864491107651e+293  -2.5986874164615532e+289  -1.2159750579082043e+289  -1.5079061467880823e+284  1.0213766940702512e+285  1.6300678913545406e+281  -5.7868148524078522e+285  1.1305572151299737e+280  1.5775898804899724e+283  -3.4257589719908739e+283  2.7555658731453777e+284  9.6788105249171022e+286  1.5937380440490229e+286  1.7012697778478941e+291  2.6010255708718524e+288  -8.4501466123178416e+290  3.3528460144715274e+286  -3.1852736838629750e+296  1.8830028118544036e+292  5.0817851641850393e+289  8.6118548827862073e+290  -1.4337161678516684e+284  1.6397048587110378e+294  -7.5565439212005341e+291  1.4042866599969678e+284  6.3617752366033101e+279  3.5698772548836802e+295  -3.7081772822924770e+292  -8.6841777522015524e+291  3.7507771211954721e+290  1.9272841822240673e+298  -1.7489570639543875e+295  -2.3845791287421323e+285  7.9907543933315676e+294  -1.8649768260578046e+290  3.4817996336198784e+290  -3.1595905739088395e+282  4.3738735522889867e+285  3.7497651652655450e+280  -1.3385182189625946e+288  3.4248394607068853e+287  -1.5730150034737573e+295  2.0789366103167519e+293  -4.0882340058986604e+297  -3.3795989013763743e+287  -2.7605749093651925e+282  1.0877680065238138e+281  3.2364212308377714e+289  2.0728829500300383e+282  5.9983743320351618e+295  -5.4224296638967892e+293  -9.9088201438626050e+286  -7.4040995669477042e+282  -9.8202472373604288e+285  -2.0997513656441876e+300  -5.2365988313254042e+295  -6.1147435051263880e+292  -2.1688977309830915e+293  1.5808575292009170e+292  -7.1189725380138654e+295  7.9878225733066400e+292  -2.7504603689736225e+293  5.2350423186537187e+290  -1.4180779110577508e+287  -2.2255648391405274e+298  -5.3589694512797305e+282  -1.2278190728752427e+287  -1.3928699507479874e+294  2.2368191845948581e+294  -1.4060327529670672e+295  -4.6552235651363527e+286  -3.5488082956751777e+287  -2.4618177756780119e+298  3.0113947311083644e+280  -1.6799122252687278e+297  5.5425924475265820e+283  -5.2337138033839770e+280  -1.1026644359599814e+280  -4.8752151846130856e+291  -6.2163864900097759e+291  -3.4057469509089980e+296  -8.3736254858762937e+296  -4.6559458959909078e+292  -1.9089218780449002e+286  1.3432195707665531e+288  1.0973942878876590e+293  4.0316103025338650e+293  -3.3480580774953482e+286  -3.7889003628682822e+290  9.0962954683347894e+287  7.5492229906143291e+292  1.1528187808774480e+284  -3.6899854736820573e+291  1.0630794911970222e+295  7.7236972381278753e+293  -1.1596039872616014e+284  -3.6870021517736437e+283  -1.8258893898766459e+285  1.8344696171506596e+284  3.0140696818809274e+287  3.6915146743344755e+285  -6.7475773861653320e+296  2.6565699676349754e+281  -1.2889893232043933e+281  1.3021444441061226e+283  2.7582603109056264e+291  -8.0780342187829799e+290  5.2618129868514644e+291  -3.7413622788097537e+283  -6.6645421383656996e+285  -2.3869925302806348e+289  6.1193614349490412e+292  -9.0792648771303165e+293  7.0556012247797483e+287  4.9781947602178457e+293  3.2358070277736751e+294  -1.8795838693301628e+299  -1.1785559271827491e+286  -2.4893731217915896e+287  7.0440759747914834e+293  -6.3032416415852285e+287  2.2076687493608887e+284  -3.9110079717206844e+291  5.3635309100156125e+282  -5.7126992492610402e+285  4.3793528841960327e+289  -3.6309761166576573e+281  2.8596779587040212e+286  2.2862810043029106e+288  -1.3732404326983199e+281  -1.8636557588309254e+284  9.8038808446748049e+282  5.2322557642963093e+281  9.0696397402430644e+288  -1.6779633434468715e+289  -1.6406160882301274e+295  4.3149050159691588e+284  -1.3903059384675045e+294  5.0435466155534313e+297  9.5790062935330154e+285  3.1243206593092938e+280  -2.4356152275345518e+289  -1.5414166630091747e+286  -3.8734038425910051e+297  3.9802371553172166e+285  -2.8267643398747591e+286  1.9150835761158065e+292  -4.2841490755607801e+283  -2.6087866136238319e+279  -1.8521551020443500e+283  -8.6714847347218109e+287  1.4738197056927928e+294  1.3964655188573765e+290  4.0615214546611976e+288  1.0401500755763382e+289  7.5236041591703617e+296  -4.5075161458404990e+288  2.0626774105537143e+280  1.1233325870452086e+289  1.9344425695483410e+282  -3.2729147692358911e+283  4.4698506056766208e+291  1.6940688035535830e+285  1.4202689145151604e+300  8.0616938385200275e+282  9.1137276927697167e+284  -9.1750217489590391e+281  -1.3055327038992261e+292  4.1912067816960572e+290  5.2998585012022761e+288  4.0130425430082119e+290  -8.6757691203435193e+279  -5.2401940851213232e+283  9.1596208937570129e+293  -6.9649342979897923e+289  1.7622154419543255e+291  7.2338957085245867e+286  9.1386297499103964e+280  -1.3039358341736804e+282  2.3137316081557795e+293  -2.1014885267231438e+279  1.0634498267260384e+293  -1.1159778011502827e+285  -9.8377876345244534e+296  -8.4286152836773604e+285  3.1935636492746504e+283  8.1792189470639207e+284  -3.8656020247449771e+283  1.3382101806512131e+284  -2.3304100548728190e+284  -5.3362390252650744e+294  -1.8660977839392189e+297  -1.1427563715706711e+299  -4.8662181507376710e+294  4.6540299405623354e+283  -2.7751032838162017e+297  2.3796888771405214e+294  1.2805870027553015e+286  -3.1695955098836607e+279  3.5840095225810242e+280  -1.8324493545124485e+289  3.5002124720883522e+288  5.0815574615083534e+288  -4.7940249928614855e+295  1.9644155143750693e+286  8.9842037014890798e+281  -9.0499855002151353e+279  -3.3373158951295647e+282  1.4030627063737460e+290  -1.2454551322185483e+282  -5.9898811081658149e+289  2.3568400772288507e+283  5.3049481327893930e+281  5.7539217712805503e+283  3.2458194421418590e+290  -3.3055709770325650e+285  1.9849529682483153e+292  -1.1557235137002474e+292  4.6052619466648261e+292  9.3680158900862039e+288  4.1576331694876755e+290  -8.0362292869272381e+293  -2.6977191985790869e+282  -8.6529848206891477e+297  -2.0707368299003938e+284  7.4807449746268167e+296  -3.9075991445391398e+287  2.5588291248684017e+294  -7.2655414745799934e+293  -4.2055128578563845e+301  5.5374010106029115e+284  -2.8638140634678252e+281  -1.7300576993211534e+290  3.0562785599283535e+293  -3.2809847566885864e+286  3.6893438713559787e+291  -2.3052319766921997e+293  1.1061295229686242e+282  2.4106115570899956e+289  1.3911134593393027e+283  -2.2155058760967823e+299  -2.4559959627063228e+299  -3.0648995009452752e+298  1.1889676162646075e+287  3.7387651419398346e+284  7.3902806433564966e+284  8.6102871489671901e+286  -4.2352276898599409e+291  3.7249726299271310e+293  -3.9040690831547530e+285  7.6352171304332933e+291  9.2369039223712774e+286  3.3047995395180687e+286  5.3711927672284501e+297  1.3197230379309556e+289  -3.1453939576329792e+292  -4.5494740240774073e+288  -6.3466795787091660e+290  1.3180633416404814e+287  -6.0561489576027791e+287  -3.0144726699261434e+282  3.7833513910174664e+290  -6.0355098909801192e+28