<?xml version="1.0"?>
<VTKFile type="UnstructuredGrid"  version="0.1"  >
<UnstructuredGrid>
<Piece  NumberOfPoints="20054" NumberOfCells="39478">
<Points>
<DataArray  type="Float64"  NumberOfComponents="3"  format="ascii">1 0 0  0.9997998037428526 0.02000880895389431 0  0.9991992951284931 0.04000960653046352 0  0.9981987145960756 0.05999438456007805 0  0.9967984627705549 0.07995514128721501 0  0.9949991003022806 0.09988388457430118 0  0.9928013476425149 0.1197726351017051 0  0.9902060847549715 0.139613429562597 0  0.987214350763483 0.1593983238513969 0  0.9838273435359444 0.1791193962445356 0  0.9800464192046954 0.198768750572253 0  0.9758730916235354 0.2183385193801655 0  0.9713090317615876 0.237820867079336 0  0.9663560670342555 0.2572079930835849 0  0.9610161805715396 0.2764921349327862 0  0.9552915104240066 0.2956655714008991 0  0.9491843487067304 0.3147206255874884 0  0.9426971406815462 0.3336496679914983 0  0.9358324837779861 0.3524451195660473 0  0.9285931265532873 0.3710994547530225 0  0.9209819675918909 0.3896052044962556 0  0.9130020543448703 0.4079549592320781 0  0.9046565819097542 0.4261413718560547 0  0.8959488917512338 0.4441571606647087 0  0.8868824703632656 0.4619951122710622 0  0.8774609478731046 0.4796480844928215 0  0.8676880965878291 0.4971090092120542 0  0.8575678294839372 0.5143708952052096 0  0.8471041986406199 0.5314268309423539 0  0.8363013936173391 0.5482699873544935 0  0.8251637397763597 0.5648936205678837 0  0.8136956965509062 0.5812910746042258 0  0.8019018556596399 0.5974557840456699 0  0.7897869392681683 0.6133812766635599 0  0.777355798098326 0.6290611760098652 0  0.7646134094859813 0.6444892039702628 0  0.7515648753881492 0.6596591832778468 0  0.7382154203402046 0.6745650399864606 0  0.7245703893640189 0.6892008059026586 0  0.7106352458278521 0.7035606209753273 0  0.6964155692588616 0.7176387356420051 0  0.6819170531091018 0.7314295131309636 0  0.6671455024759069 0.7449274317181303 0  0.6521068317775753 0.7581270869379442 0  0.6368070623852795 0.7710231937472638 0  0.6212523202121545 0.7836105886414595 0  0.6054488332605282 0.795884231721841 0  0.5894029291282759 0.8078392087135958 0  0.5731210324752972 0.8194707329334278 0  0.5566096624511305 0.8307741472061095 0  0.5398754300847343 0.8417449257291802 0  0.5229250356374803 0.8523786758850435 0  0.5057652659204196 0.8626711399997378 0  0.4884029915768944 0.8726181970476778 0  0.4708451643315825 0.8822158643016828 0  0.45309881420708 0.8914602989276292 0  0.4351710467091336 0.9003477995230937 0  0.4170690399816468 0.9088748075993677 0  0.398800041932607 0.9170379090062476 0  0.3803713673320772 0.9248338352990368 0  0.3617903948834157 0.9322594650472057 0  0.3430645642688987 0.9393118250841893 0  0.3242013731709288 0.9459880916978206 0  0.3052083742700172 0.952285591760924 0  0.2860931722207478 0.9582018038016155 0  0.2668634206069304 0.963734359012881 0  0.2475268188771628 0.9688810422010291 0  0.2280911092620296 0.9736397926726377 0  0.2085640736741707 0.9780087050596407 0  0.1889535305924618 0.9819860300822225 0  0.1692673319315541 0.9855701752492174 0  0.1495133598980264 0.9887597054957302 0  0.1296995238344084 0.9915533437577263 0  0.1098337570523395 0.9939499714833577 0  0.08992401365612977 0.9959486290808237 0  0.06997826535799723 0.9975485163025836 0  0.05000449828625179 0.9987489925657699 0  0.03001070978771124 0.9995495772086734 0  0.01000490522562346 0.9999499496831961 0  -0.01000490522562333 0.9999499496831961 0  -0.03001070978771133 0.9995495772086734 0  -0.05000449828625144 0.9987489925657699 0  -0.06997826535799688 0.9975485163025836 0  -0.08992401365612987 0.9959486290808237 0  -0.1098337570523394 0.9939499714833577 0  -0.1296995238344082 0.9915533437577263 0  -0.1495133598980262 0.9887597054957303 0  -0.1692673319315537 0.9855701752492174 0  -0.1889535305924614 0.9819860300822226 0  -0.2085640736741705 0.9780087050596407 0  -0.2280911092620295 0.9736397926726377 0  -0.2475268188771627 0.9688810422010291 0  -0.2668634206069302 0.9637343590128811 0  -0.2860931722207475 0.9582018038016156 0  -0.3052083742700173 0.9522855917609239 0  -0.3242013731709289 0.9459880916978205 0  -0.3430645642688986 0.9393118250841894 0  -0.3617903948834154 0.9322594650472058 0  -0.380371367332077 0.924833835299037 0  -0.3988000419326071 0.9170379090062476 0  -0.4170690399816465 0.9088748075993678 0  -0.4351710467091335 0.9003477995230939 0  -0.4530988142070799 0.8914602989276292 0  -0.4708451643315824 0.8822158643016829 0  -0.4884029915768945 0.8726181970476778 0  -0.5057652659204197 0.8626711399997378 0  -0.5229250356374801 0.8523786758850437 0  -0.5398754300847342 0.8417449257291804 0  -0.5566096624511303 0.8307741472061098 0  -0.5731210324752971 0.8194707329334279 0  -0.589402929128276 0.8078392087135957 0  -0.6054488332605281 0.7958842317218411 0  -0.6212523202121542 0.7836105886414597 0  -0.6368070623852793 0.7710231937472639 0  -0.652106831777575 0.7581270869379444 0  -0.6671455024759069 0.7449274317181304 0  -0.6819170531091018 0.7314295131309636 0  -0.6964155692588616 0.7176387356420052 0  -0.7106352458278521 0.7035606209753273 0  -0.7245703893640187 0.6892008059026588 0  -0.7382154203402043 0.6745650399864608 0  -0.751564875388149 0.6596591832778469 0  -0.7646134094859813 0.6444892039702628 0  -0.7773557980983258 0.6290611760098654 0  -0.7897869392681683 0.6133812766635599 0  -0.8019018556596398 0.59745578404567 0  -0.8136956965509062 0.5812910746042258 0  -0.8251637397763595 0.5648936205678839 0  -0.836301393617339 0.5482699873544935 0  -0.8471041986406197 0.5314268309423542 0  -0.8575678294839372 0.5143708952052097 0  -0.8676880965878292 0.497109009212054 0  -0.8774609478731045 0.4796480844928216 0  -0.8868824703632656 0.4619951122710621 0  -0.8959488917512338 0.4441571606647088 0  -0.904656581909754 0.426141371856055 0  -0.9130020543448703 0.4079549592320783 0  -0.920981967591891 0.3896052044962555 0  -0.9285931265532872 0.3710994547530226 0  -0.9358324837779861 0.3524451195660473 0  -0.9426971406815462 0.3336496679914984 0  -0.9491843487067303 0.3147206255874888 0  -0.9552915104240065 0.2956655714008993 0  -0.9610161805715396 0.2764921349327862 0  -0.9663560670342555 0.2572079930835851 0  -0.9713090317615876 0.2378208670793361 0  -0.9758730916235353 0.2183385193801658 0  -0.9800464192046954 0.198768750572253 0  -0.9838273435359444 0.1791193962445354 0  -0.987214350763483 0.159398323851397 0  -0.9902060847549714 0.1396134295625972 0  -0.9928013476425149 0.1197726351017052 0  -0.9949991003022804 0.09988388457430147 0  -0.9967984627705549 0.07995514128721509 0  -0.9981987145960756 0.05999438456007793 0  -0.9991992951284931 0.04000960653046362 0  -0.9997998037428526 0.02000880895389464 0  -1 1.224646799147353e-16 0  -0.9997998037428526 -0.0200088089538944 0  -0.9991992951284931 -0.04000960653046338 0  -0.9981987145960756 -0.05999438456007812 0  -0.9967984627705549 -0.07995514128721484 0  -0.9949991003022806 -0.09988388457430078 0  -0.9928013476425149 -0.1197726351017049 0  -0.9902060847549715 -0.1396134295625965 0  -0.9872143507634831 -0.1593983238513963 0  -0.9838273435359444 -0.1791193962445356 0  -0.9800464192046953 -0.1987687505722532 0  -0.9758730916235354 -0.2183385193801655 0  -0.9713090317615876 -0.2378208670793363 0  -0.9663560670342556 -0.2572079930835848 0  -0.9610161805715396 -0.276492134932786 0  -0.9552915104240066 -0.2956655714008991 0  -0.9491843487067305 -0.3147206255874881 0  -0.9426971406815464 -0.3336496679914978 0  -0.9358324837779862 -0.3524451195660471 0  -0.9285931265532875 -0.371099454753022 0  -0.9209819675918909 -0.3896052044962557 0  -0.9130020543448704 -0.407954959232078 0  -0.9046565819097541 -0.4261413718560548 0  -0.8959488917512338 -0.4441571606647086 0  -0.8868824703632655 -0.4619951122710623 0  -0.8774609478731046 -0.4796480844928214 0  -0.8676880965878293 -0.4971090092120538 0  -0.8575678294839373 -0.5143708952052095 0  -0.84710419864062 -0.5314268309423537 0  -0.8363013936173395 -0.5482699873544929 0  -0.8251637397763596 -0.5648936205678838 0  -0.8136956965509061 -0.5812910746042259 0  -0.8019018556596399 -0.5974557840456699 0  -0.7897869392681682 -0.61338127666356 0  -0.777355798098326 -0.6290611760098652 0  -0.7646134094859816 -0.6444892039702625 0  -0.7515648753881492 -0.6596591832778468 0  -0.7382154203402048 -0.6745650399864603 0  -0.7245703893640192 -0.6892008059026583 0  -0.7106352458278522 -0.7035606209753272 0  -0.6964155692588621 -0.7176387356420046 0  -0.6819170531091017 -0.7314295131309637 0  -0.667145502475907 -0.7449274317181303 0  -0.6521068317775756 -0.758127086937944 0  -0.6368070623852792 -0.7710231937472641 0  -0.6212523202121544 -0.7836105886414596 0  -0.6054488332605283 -0.795884231721841 0  -0.5894029291282762 -0.8078392087135956 0  -0.5731210324752977 -0.8194707329334274 0  -0.5566096624511304 -0.8307741472061095 0  -0.5398754300847344 -0.8417449257291802 0  -0.5229250356374798 -0.8523786758850437 0  -0.5057652659204195 -0.8626711399997379 0  -0.4884029915768943 -0.872618197047678 0  -0.4708451643315825 -0.8822158643016828 0  -0.4530988142070805 -0.8914602989276289 0  -0.4351710467091333 -0.900347799523094 0  -0.4170690399816467 -0.9088748075993677 0  -0.3988000419326073 -0.9170379090062475 0  -0.3803713673320777 -0.9248338352990366 0  -0.3617903948834162 -0.9322594650472055 0  -0.3430645642688988 -0.9393118250841893 0  -0.3242013731709283 -0.9459880916978207 0  -0.3052083742700169 -0.9522855917609241 0  -0.2860931722207477 -0.9582018038016155 0  -0.2668634206069305 -0.963734359012881 0  -0.2475268188771631 -0.968881042201029 0  -0.2280911092620301 -0.9736397926726376 0  -0.2085640736741706 -0.9780087050596407 0  -0.1889535305924619 -0.9819860300822225 0  -0.1692673319315544 -0.9855701752492173 0  -0.1495133598980269 -0.9887597054957302 0  -0.1296995238344092 -0.9915533437577262 0  -0.1098337570523396 -0.9939499714833577 0  -0.08992401365612945 -0.9959486290808237 0  -0.06997826535799691 -0.9975485163025836 0  -0.05000449828625168 -0.9987489925657699 0  -0.0300107
[...]
<PointData  Scalars="Displacement"> 
<DataArray  type="Float64"  Name="Displacement"  format="ascii">0.0000000000000000e+00  0.0000000000000000e+00  0.0000000000000000e+00  0.0000000000000000e+00  0.0000000000000000e+00  0.0000000000000000e+00  0.0000000000000000e+00  0.0000000000000000e+00  0.0000000000000000e+00  0.0000000000000000e+00  0.0000000000000000e+00  0.0000000000000000e+00  0.0000000000000000e+00  0.0000000000000000e+00  0.0000000000000000e+00  0.0000000000000000e+00  0.0000000000000000e+00  0.0000000000000000e+00  0.0000000000000000e+00  0.0000000000000000e+00  0.0000000000000000e+00  0.0000000000000000e+00  0.0000000000000000e+00  0.0000000000000000e+00  0.0000000000000000e+00  0.0000000000000000e+00  0.0000000000000000e+00  0.0000000000000000e+00  0.0000000000000000e+00  0.0000000000000000e+00  0.0000000000000000e+00  0.0000000000000000e+00  0.0000000000000000e+00  0.0000000000000000e+00  0.0000000000000000e+00  0.0000000000000000e+00  0.0000000000000000e+00  0.0000000000000000e+00  0.0000000000000000e+00  0.0000000000000000e+00  0.0000000000000000e+00  0.0000000000000000e+00  0.0000000000000000e+00  0.0000000000000000e+00  0.0000000000000000e+00  0.0000000000000000e+00  0.0000000000000000e+00  0.0000000000000000e+00  0.0000000000000000e+00  0.0000000000000000e+00  0.0000000000000000e+00  0.0000000000000000e+00  0.0000000000000000e+00  0.0000000000000000e+00  0.0000000000000000e+00  0.0000000000000000e+00  0.0000000000000000e+00  0.0000000000000000e+00  0.0000000000000000e+00  0.0000000000000000e+00  0.0000000000000000e+00  0.0000000000000000e+00  0.0000000000000000e+00  0.0000000000000000e+00  0.0000000000000000e+00  0.0000000000000000e+00  0.0000000000000000e+00  0.0000000000000000e+00  0.0000000000000000e+00  0.0000000000000000e+00  0.0000000000000000e+00  0.0000000000000000e+00  0.0000000000000000e+00  0.0000000000000000e+00  0.0000000000000000e+00  0.0000000000000000e+00  0.0000000000000000e+00  0.0000000000000000e+00  0.0000000000000000e+00  0.0000000000000000e+00  0.0000000000000000e+00  0.0000000000000000e+00  0.0000000000000000e+00  0.0000000000000000e+00  0.0000000000000000e+00  0.0000000000000000e+00  0.0000000000000000e+00  0.0000000000000000e+00  0.0000000000000000e+00  0.0000000000000000e+00  0.0000000000000000e+00  0.0000000000000000e+00  0.0000000000000000e+00  0.0000000000000000e+00  0.0000000000000000e+00  0.0000000000000000e+00  0.0000000000000000e+00  0.0000000000000000e+00  0.0000000000000000e+00  0.0000000000000000e+00  0.0000000000000000e+00  0.0000000000000000e+00  0.0000000000000000e+00  0.0000000000000000e+00  0.0000000000000000e+00  0.0000000000000000e+00  0.0000000000000000e+00  0.0000000000000000e+00  0.0000000000000000e+00  0.0000000000000000e+00  0.0000000000000000e+00  0.0000000000000000e+00  0.0000000000000000e+00  0.0000000000000000e+00  0.0000000000000000e+00  0.0000000000000000e+00  0.0000000000000000e+00  0.0000000000000000e+00  0.0000000000000000e+00  0.0000000000000000e+00  0.0000000000000000e+00  0.0000000000000000e+00  0.0000000000000000e+00  0.0000000000000000e+00  0.0000000000000000e+00  0.0000000000000000e+00  0.0000000000000000e+00  0.0000000000000000e+00  0.0000000000000000e+00  0.0000000000000000e+00  0.0000000000000000e+00  0.0000000000000000e+00  0.0000000000000000e+00  0.0000000000000000e+00  0.0000000000000000e+00  0.0000000000000000e+00  0.0000000000000000e+00  0.0000000000000000e+00  0.0000000000000000e+00  0.0000000000000000e+00  0.0000000000000000e+00  0.0000000000000000e+00  0.0000000000000000e+00  0.0000000000000000e+00  0.0000000000000000e+00  0.0000000000000000e+00  0.0000000000000000e+00  0.0000000000000000e+00  0.0000000000000000e+00  0.0000000000000000e+00  0.0000000000000000e+00  0.0000000000000000e+00  0.0000000000000000e+00  0.0000000000000000e+00  0.0000000000000000e+00  0.0000000000000000e+00  0.0000000000000000e+00  0.0000000000000000e+00  0.0000000000000000e+00  0.0000000000000000e+00  0.0000000000000000e+00  0.0000000000000000e+00  0.0000000000000000e+00  0.0000000000000000e+00  0.0000000000000000e+00  0.0000000000000000e+00  0.0000000000000000e+00  0.0000000000000000e+00  0.0000000000000000e+00  0.0000000000000000e+00  0.0000000000000000e+00  0.0000000000000000e+00  0.0000000000000000e+00  0.0000000000000000e+00  0.0000000000000000e+00  0.0000000000000000e+00  0.0000000000000000e+00  0.0000000000000000e+00  0.0000000000000000e+00  0.0000000000000000e+00  0.0000000000000000e+00  0.0000000000000000e+00  0.0000000000000000e+00  0.0000000000000000e+00  0.0000000000000000e+00  0.0000000000000000e+00  0.0000000000000000e+00  0.0000000000000000e+00  0.0000000000000000e+00  0.0000000000000000e+00  0.0000000000000000e+00  0.0000000000000000e+00  0.0000000000000000e+00  0.0000000000000000e+00  0.0000000000000000e+00  0.0000000000000000e+00  0.0000000000000000e+00  0.0000000000000000e+00  0.0000000000000000e+00  0.0000000000000000e+00  0.0000000000000000e+00  0.0000000000000000e+00  0.0000000000000000e+00  0.0000000000000000e+00  0.0000000000000000e+00  0.0000000000000000e+00  0.0000000000000000e+00  0.0000000000000000e+00  0.0000000000000000e+00  0.0000000000000000e+00  0.0000000000000000e+00  0.0000000000000000e+00  0.0000000000000000e+00  0.0000000000000000e+00  0.0000000000000000e+00  0.0000000000000000e+00  0.0000000000000000e+00  0.0000000000000000e+00  0.0000000000000000e+00  0.0000000000000000e+00  0.0000000000000000e+00  0.0000000000000000e+00  0.0000000000000000e+00  0.0000000000000000e+00  0.0000000000000000e+00  0.0000000000000000e+00  0.0000000000000000e+00  0.0000000000000000e+00  0.0000000000000000e+00  0.0000000000000000e+00  0.0000000000000000e+00  0.0000000000000000e+00  0.0000000000000000e+00  0.0000000000000000e+00  0.0000000000000000e+00  0.0000000000000000e+00  0.0000000000000000e+00  0.0000000000000000e+00  0.0000000000000000e+00  0.0000000000000000e+00  0.0000000000000000e+00  0.0000000000000000e+00  0.0000000000000000e+00  0.0000000000000000e+00  0.0000000000000000e+00  0.0000000000000000e+00  0.0000000000000000e+00  0.0000000000000000e+00  0.0000000000000000e+00  0.0000000000000000e+00  0.0000000000000000e+00  0.0000000000000000e+00  0.0000000000000000e+00  0.0000000000000000e+00  0.0000000000000000e+00  0.0000000000000000e+00  0.0000000000000000e+00  0.0000000000000000e+00  0.0000000000000000e+00  0.0000000000000000e+00  0.0000000000000000e+00  0.0000000000000000e+00  0.0000000000000000e+00  0.0000000000000000e+00  0.0000000000000000e+00  0.0000000000000000e+00  0.0000000000000000e+00  0.0000000000000000e+00  0.0000000000000000e+00  0.0000000000000000e+00  0.0000000000000000e+00  0.0000000000000000e+00  0.0000000000000000e+00  0.0000000000000000e+00  0.0000000000000000e+00  0.0000000000000000e+00  0.0000000000000000e+00  0.0000000000000000e+00  0.0000000000000000e+00  0.0000000000000000e+00  0.0000000000000000e+00  0.0000000000000000e+00  0.0000000000000000e+00  0.0000000000000000e+00  0.0000000000000000e+00  0.0000000000000000e+00  0.0000000000000000e+00  0.0000000000000000e+00  0.0000000000000000e+00  0.0000000000000000e+00  0.0000000000000000e+00  0.0000000000000000e+00  0.0000000000000000e+00  0.0000000000000000e+00  0.0000000000000000e+00  0.0000000000000000e+00  0.0000000000000000e+00  0.0000000000000000e+00  0.0000000000000000e+00  0.0000000000000000e+00  0.0000000000000000e+00  0.0000000000000000e+00  0.0000000000000000e+00  0.0000000000000000e+00  0.0000000000000000e+00  0.0000000000000000e+00  0.0000000000000000e+00  0.0000000000000000e+00  0.0000000000000000e+00  0.0000000000000000e+00  0.0000000000000000e+00  0.0000000000000000e+00  0.0000000000000000e+00  0.0000000000000000e+00  -1.8527850351519040e-01  2.8018750209591908e-02  2.7905553226877586e-02  2.8242496853123699e-02  2.7487475551965269e-02  2.8087751629375244e-02  -1.5092777790066601e-06  -4.3479570279461254e-08  2.5351250758400535e-10  2.6702930914911986e-11  1.8024214733403406e-12  1.9389860081046706e-01  1.8031607252306689e-14  1.5411776950285114e-14  1.8143020475872501e-01  1.6940028838808208e-01  -7.9641882078917620e-16  -2.6660994126565019e-17  -7.3151944450640000e-17  2.6774804581487380e-17  1.0424193069336638e-18  -1.3057467118103314e-16  -1.1738879082434299e-17  1.6778897830183739e-01  1.6770181363424244e-01  9.6179256480673325e-02  7.0374338444079204e-18  7.3283284260966281e-19  1.5791512534239710e-19  5.8536045226971006e-02  -2.3530872930776585e-19  1.5077462753238238e-01  1.5035048868275521e-03  3.9981931109158084e-02  3.1318153901857457e-21  5.4071622762939125e-20  1.2806450873396831e-21  5.8418912693632747e-22  3.2713254395634512e-23  3.9210278003765276e-04  3.4098554907744183e-05  -1.4971698547217205e-05  -6.7447726238820688e-05  -7.0199853229474557e-02  5.9004196404953337e-22  -7.3546746053842231e-24  -1.2617411413312749e-23  -1.0156132900860787e-22  1.3962961516891237e-07  -4.4263098531182902e-06  7.6986923387722283e-14  3.8175996613089167e-04  -1.3694900252870145e-05  7.0986013951593901e-02  -1.2304435636838086e-24  -1.0380323830188003e-01  -5.2122317495063838e-22  9.6484071679639394e-26  2.0680291537533951e-01  -4.8279310002471797e-24  -9.3964528861360799e-25  7.4193998049552628e-11  1.2075747964819140e-25  -9.7874290796153212e-25  2.0682960703171324e-01  9.0358725254962122e-02  1.7709954039217751e-01  7.0696118194017513e-02  1.8135565002188278e-01  -1.6564613779141718e-01  2.0622864314873207e-01  -1.0243124927495954e-06  6.1325930370150027e-12  3.9295434840171055e-08  2.5974740481130086e-08  2.0379731967279305e-01  -3.8962678537926773e-24  1.4321297138176747e-01  2.0496479432177900e-01  -1.1970722168152404e-11  4.3314072699125586e-25  1.6186325514628752e-01  1.3753363578225509e-26  4.9101160287151959e-27  4.5785804277134845e-27  -1.9298741069866335e-01  1.1248990511493088e-25  3.4764471252209735e-24  -1.7475787288269908e-26  1.8419076366323139e-01  5.0690848540166608e-13  -4.6559440682032283e-28  2.5735161050786339e-10  -8.1686573276867858e-28  1.0508035875104216e-13  -8.7928278096781470e-02  4.1607434279423733e-27  2.4277304522874744e-27  -8.2782953968044037e-13  5.0297373053877567e-15  3.3748009380021121e-11  -2.5764719823426292e-12  8.3993424248667525e-27  9.2762510724466105e-02  1.1064189730973883e-03  1.4576378426308242e-03  1.1544514513913340e-01  -4.0195677758104213e-14  -3.4568398763749692e-14  8.5656337924271324e-29  1.2688901613967166e-01  2.9783016541695785e-28  -1.0257973369457947e-27  -3.0185759828671981e-07  2.9244033909098452e-07  4.8666362858288820e-14  4.3647220265693463e-29  4.4796752516957710e-26  -8.0611158184921425e-28  -1.6745219016616569e-01  1.0052961561999663e-01  -1.0519941595209436e-17  1.7406376589407266e-01  2.4924940705093559e-25  7.6473988857716521e-16  2.6301109824173166e-12  -6.2723911905042633e-27  -8.4947878606591130e-30  -1.1603410463593295e-15  3.9848668033864695e-17  8.4049067059859378e-12  -1.0081662107004638e-15  -1.9807269803192547e-08  6.6664828641770243e-02  -1.3930074123235302e-06  7.5828342074580506e-15  1.7930649379937013e-29  1.5994396595967783e-01  1.8706192839387509e-01  2.0298100625522200e-01  -2.4741856265716192e-01  1.5838707297449625e-01  3.9131208309364943e-21  1.2785741262503958e-01  -2.8796683189778269e-08  -1.8349090257218799e-18  -1.3389138746063659e-18  1.8822654272730341e-01  -6.4555634282139798e-02  -1.6015291979530426e-09  -5.2501146334783484e-30  3.8461122094918690e-07  1.8410410539803948e-01  -1.1691996834728808e-18  -1.4432686556151938e-18  8.5527367875131215e-24  9.4041008700664986e-30  -3.5290418149644875e-19  -5.4561283652333945e-28  -1.0119092699122725e-28  -8.5019631218037788e-27  -5.9274032975931569e-17  -1.2458034484653788e-12  -6.8804957995872885e-30  9.7565609914535769e-23  1.6273795904353232e-02  -1.1488212049266723e-17  -1.4406485553134906e-28  1.4504869510569469e-29  -1.7462453715187869e-19  -6.8176534692267537e-06  -2.5396627481194062e-01  -4.5063487125680119e-20  1.7495865289525200e-01  3.6648911895044740e-31  7.8494263973655665e-02  1.1632458603618770e-29  -2.2434125926996223e-17  1.0192594883440643e-29  4.6084220699211628e-02  -1.2724378017938666e-22  4.1427548855065607e-03  -1.8137568858903579e-06  7.1302198705070124e-02  4.0902450143356011e-29  1.7416634037425061e-04  -3.5928787659046224e-11  4.2244313064295526e-02  -6.0246555202535482e-30  1.6597975664117117e-23  5.8119676610350636e-29  -6.7372315744877231e-02  -2.9391129679206107e-30  -2.1533584466904477e-29  3.5537858061423459e-03  2.0836940296200632e-01  1.1619377599323766e-16  2.5170976617963437e-20  1.5071174076624011e-02  8.9727273278625908e-11  8.8708875052184557e-07  -9.5331018665280760e-06  3.2482828746037758e-02  -1.2583401918360532e-10  2.2442147250482675e-07  2.7331395633991896e-19  6.2949265098295603e-21  1.2061877954936003e-01  -1.9036186176836372e-26  1.3493205958172822e-20  -8.8265351198905895e-16  -3.5727478578671722e-02  -2.5686607356204094e-01  1.7042477513991839e-30  1.1283848632354818e-30  -1.6851798010099479e-20  5.4906010182292485e-02  -1.5272162670251943e-30  -2.3786466786895941e-09  1.9602145595917040e-11  -4.7614724429448695e-26  6.2620441237265328e-13  1.4255272395640819e-01  -1.1314055105024926e-09  4.6526567465166187e-13  -2.0362161354587536e-29  1.8028313455772127e-13  -6.4247488651743464e-31  1.2785682523663445e-13  -3.0913609452005638e-30  -9.5960425020826447e-29  -1.3757475422940804e-30  -8.5279866245496746e-31  1.4826152519788169e-23  -4.0222793100119739e-31  8.0288476658910757e-02  8.0802423266573990e-07  5.1556122000550817e-21  -4.3545659022344630e-23  1.4314300507393787e-01  2.0146226868558686e-01  -2.5566055016485984e-11  2.0055260678605366e-08  -6.1174901691814428e-29  2.2508624390939806e-02  -5.1687201162559506e-31  -2.2878182439372974e-32  1.3244655851859076e-29  1.9005003534300294e-01  5.0804080065504777e-02  3.0855007665201748e-05  6.6256809598216874e-05  1.7425274600217674e-01  -2.5648224832935879e-01  1.1014365581120319e-22  1.6370674216557810e-01  6.5334263879859261e-19  7.1598929996362652e-04  -8.1827868667720887e-29  6.4386835619753258e-31  3.7298996383597746e-28  2.5236977360218502e-14  6.8001826500150798e-22  -3.0213944314623862e-06  5.8301473028649957e-02  1.5376509021859439e-01  3.3653712405846255e-23  6.2873526899443173e-26  5.4816497488324161e-29  -6.7361478564836682e-07  -4.3299599733407633e-30  1.8664868393697501e-01  6.7442523419128667e-02  -9.9305562191120252e-18  -8.0916371532153155e-21  6.8864072977274832e-13  2.0655929007252097e-01  2.0724347445415606e-01  1.8058657956909993e-01  2.0092386019093336e-01  2.0365784952526292e-01  8.8111179605582998e-02  4.6415015031608949e-02  -2.1788630857633594e-12  -6.8398395916107376e-15  -2.3468290103400034e-16  2.0277027067257525e-01  -1.4480309885292080e-29  -5.1382697479272409e-22  1.4243201219498047e-01  5.7792510972294674e-02  7.0560811996964970e-02  -2.8804847510596940e-11  1.2004308117770704e-05  -1.9635988877638342e-03  1.5450891356057893e-31  2.8824014886880757e-04  2.0237523876073185e-33  2.0853238284343601e-31  7.2981189388427295e-30  -9.2612831357100189e-02  -2.5855208779828959e-01  2.0754743648393373e-01  1.2333067147953558e-01  -1.4589080839102452e-12  1.0602831768560171e-09  -3.9638328220746454e-16  1.7470157490873156e-07  1.4552202211016697e-11  -8.8459721530909886e-11  3.9817214973797714e-04  1.3171431380779091e-10  2.0307204289441899e-01  -1.7409801547127245e-19  4.5660749809515344e-02  9.8361293080101664e-02  -3.9413812733277291e-06  9.9624112123234221e-18  -4.2195972048684562e-14  -7.8454360459892761e-33  -1.7981096534544258e-19  5.3068276773979680e-19  -1.9128216535424793e-30  2.0183703635547093e-01  3.1721336562380589e-31  1.3274010174633825e-32  1.0795259641177529e-23  1.3986367034217254e-01  1.8713770709567498e-01  1.8168311330253006e-01  -1.2442973726467677e-31  -7.3001137867186121e-16  -1.3233647750444031e-11  9.5430886910101778e-03  2.0578664669692817e-01  -3.7436342840604319e-17  2.1631606883962717e-02  2.0197490738003149e-01  9.4295846458020943e-02  -2.6695727794801466e-12  -9.5648223994947286e-21  2.7283416923944356e-02  5.1875689066079614e-25  -2.5991294933462914e-25  -2.1529382310412975e-12  -5.4115838622108078e-33  1.0814085197632362e-21  3.8447358993428991e-19  2.4180495934493355e-32  -3.0067136313263669e-12  5.7343100938554735e-13  1.2395724404900135e-32  -2.0669436195986250e-25  8.9836565472816718e-30  -5.6137822116461505e-23  -7.0502662690477623e-24  -7.7740927981676105e-05  -2.5412085538703511e-01  3.2637775628991527e-23  -9.9007789230274437e-02  -1.2956123214320710e-02  3.2882327201058146e-16  -6.5798998693801216e-33  1.4512203398300586e-07  1.3150861384740067e-26  2.0802653036884727e-01  7.7276331914011976e-25  2.8030363654019897e-14  -2.3239527912398153e-01  1.6774737887125455e-21  -2.5956732355503233e-33  3.7893766912139800e-29  2.8361024481117412e-22  1.8749554231095428e-01  9.5927051490756921e-02  -6.1652573885489606e-15  -4.5493244224472569e-30  -1.4437442818980240e-01  1.3335370985014634e-07  -2.8900950817255649e-31  2.8627032285946851e-03  3.8054643767004640e-32  -6.3411038502757832e-22  2.2224453682459469e-02  -8.1511236116722156e-33  8.5599977251450632e-02  -2.8945890100031087e-34  -1.0673578653286648e-21  -3.8233233870717329e-32  1.3565044115308711e-01  -1.6936504715527991e-06  -1.1037935884634291e-12  -4.0959217969092381e-06  8.4375075726872243e-31  -1.0464515275936508e-21  1.3694186317865764e-01  -5.0321634683745543e-29  3.0356209473417631e-09  4.1112570763611764e-18  5.6418957234697622e-35  -7.6161131403863384e-31  1.7994585860621088e-04  -3.1531662966180551e-25  7.0608351135552666e-02  4.1304425119336381e-17  3.8843519113772014e-04  -1.2144929864102144e-06  -6.8834271107248849e-32  -6.3785667688061970e-23  6.4659252633349523e-21  2.8186593801227325e-24  -1.4404748313959058e-25  9.4717064903061601e-02  1.8441678737761927e-01  4.1703645521975405e-02  1.7840029196835785e-01  -4.9858504573919406e-23  1.7980458949000666e-01  3.5759126603608318e-02  -7.0792063087511465e-23  -1.2759691214596871e-31  1.9190222552510029e-30  -6.5450867171609921e-09  7.3189850605688262e-12  4.3376382782961250e-18  1.7308766375264403e-01  -1.4739702634075946e-16  -1.0690379197786203e-33  -6.6639000315355131e-32  -1.1767341822555342e-31  2.0727542446485666e-11  1.7644391670265597e-23  -3.2052008685849848e-19  1.6307368586783995e-25  -9.3018971835955526e-22  -1.8112502656087378e-22  -5.4259334999816022e-08  -2.9157838325358423e-21  2.6073019764619409e-02  -3.6700831553627434e-09  9.2988586688862857e-06  3.3763092182867281e-07  4.6483785684312629e-03  1.2713801494821664e-01  -1.0918644858932707e-25  1.1264622346613233e-01  -1.3803241240187678e-18  -2.1284453045306798e-01  7.9722967799909060e-10  2.2563451276448099e-02  7.8439385204449408e-04  1.5214584465944447e-01  7.1159273203930900e-25  1.0638989300069900e-30  -1.7084373759492567e-31  1.6523906470928662e-01  -4.2391897892243315e-13  8.6440930148361152e-03  2.8516862619936110e-02  3.3995549475927645e-27  4.4561499208125850e-07  -3.3352632279442384e-34  7.4349783732071295e-02  2.0775286703797047e-01  4.1901036523113486e-02  4.3310748062599917e-18  -3.4866688152733187e-24  -1.5623039842381382e-26  9.4458781662301232e-16  8.2284183582825242e-16  -3.4570746975877768e-06  2.4058413963361443e-28  4.6345700138854931e-02  7.5950259772235885e-03  9.1468432577767966e-21  6.8023927297657563e-02  -3.5388335320035030e-14  9.2780120836599162e-03  -2.4084996971711968e-14  -4.3554632351887405e-10  1.1581259068286347e-10  6.7917900979321034e-19  -1.3975375594881814e-34  2.0424631520310804e-24  6.2877404140657588e-33  1.2026896857182411e-26  -3.2219932178700741e-29  1.9995489364248853e-01  -3.3277140706395176e-21  -1.3022548214611916e-07  5.6231663796567548e-18  1.1570110898002411e-01  -7.1374185976998915e-06  2.0800369019000547e-01  3.4914641153457313e-29  1.1121145022305226e-01  5.4854809862424586e-27  -8.6888851254174206e-33  -1.3461428606500807e-32  1.4389896175689761e-03  -1.0548342326417140e-25  -1.8864558047704976e-32  8.1733482610824731e-04  1.7152083577239369e-04  -7.7355880193527796e-10  -1.9494466160487611e-19  3.16757142550565