<?xml version="1.0"?>
<VTKFile type="UnstructuredGrid"  version="0.1"  >
<UnstructuredGrid>
<Piece  NumberOfPoints="20054" NumberOfCells="39478">
<Points>
<DataArray  type="Float64"  NumberOfComponents="3"  format="ascii">1 0 0  0.9997998037428526 0.02000880895389431 0  0.9991992951284931 0.04000960653046352 0  0.9981987145960756 0.05999438456007805 0  0.9967984627705549 0.07995514128721501 0  0.9949991003022806 0.09988388457430118 0  0.9928013476425149 0.1197726351017051 0  0.9902060847549715 0.139613429562597 0  0.987214350763483 0.1593983238513969 0  0.9838273435359444 0.1791193962445356 0  0.9800464192046954 0.198768750572253 0  0.9758730916235354 0.2183385193801655 0  0.9713090317615876 0.237820867079336 0  0.9663560670342555 0.2572079930835849 0  0.9610161805715396 0.2764921349327862 0  0.9552915104240066 0.2956655714008991 0  0.9491843487067304 0.3147206255874884 0  0.9426971406815462 0.3336496679914983 0  0.9358324837779861 0.3524451195660473 0  0.9285931265532873 0.3710994547530225 0  0.9209819675918909 0.3896052044962556 0  0.9130020543448703 0.4079549592320781 0  0.9046565819097542 0.4261413718560547 0  0.8959488917512338 0.4441571606647087 0  0.8868824703632656 0.4619951122710622 0  0.8774609478731046 0.4796480844928215 0  0.8676880965878291 0.4971090092120542 0  0.8575678294839372 0.5143708952052096 0  0.8471041986406199 0.5314268309423539 0  0.8363013936173391 0.5482699873544935 0  0.8251637397763597 0.5648936205678837 0  0.8136956965509062 0.5812910746042258 0  0.8019018556596399 0.5974557840456699 0  0.7897869392681683 0.6133812766635599 0  0.777355798098326 0.6290611760098652 0  0.7646134094859813 0.6444892039702628 0  0.7515648753881492 0.6596591832778468 0  0.7382154203402046 0.6745650399864606 0  0.7245703893640189 0.6892008059026586 0  0.7106352458278521 0.7035606209753273 0  0.6964155692588616 0.7176387356420051 0  0.6819170531091018 0.7314295131309636 0  0.6671455024759069 0.7449274317181303 0  0.6521068317775753 0.7581270869379442 0  0.6368070623852795 0.7710231937472638 0  0.6212523202121545 0.7836105886414595 0  0.6054488332605282 0.795884231721841 0  0.5894029291282759 0.8078392087135958 0  0.5731210324752972 0.8194707329334278 0  0.5566096624511305 0.8307741472061095 0  0.5398754300847343 0.8417449257291802 0  0.5229250356374803 0.8523786758850435 0  0.5057652659204196 0.8626711399997378 0  0.4884029915768944 0.8726181970476778 0  0.4708451643315825 0.8822158643016828 0  0.45309881420708 0.8914602989276292 0  0.4351710467091336 0.9003477995230937 0  0.4170690399816468 0.9088748075993677 0  0.398800041932607 0.9170379090062476 0  0.3803713673320772 0.9248338352990368 0  0.3617903948834157 0.9322594650472057 0  0.3430645642688987 0.9393118250841893 0  0.3242013731709288 0.9459880916978206 0  0.3052083742700172 0.952285591760924 0  0.2860931722207478 0.9582018038016155 0  0.2668634206069304 0.963734359012881 0  0.2475268188771628 0.9688810422010291 0  0.2280911092620296 0.9736397926726377 0  0.2085640736741707 0.9780087050596407 0  0.1889535305924618 0.9819860300822225 0  0.1692673319315541 0.9855701752492174 0  0.1495133598980264 0.9887597054957302 0  0.1296995238344084 0.9915533437577263 0  0.1098337570523395 0.9939499714833577 0  0.08992401365612977 0.9959486290808237 0  0.06997826535799723 0.9975485163025836 0  0.05000449828625179 0.9987489925657699 0  0.03001070978771124 0.9995495772086734 0  0.01000490522562346 0.9999499496831961 0  -0.01000490522562333 0.9999499496831961 0  -0.03001070978771133 0.9995495772086734 0  -0.05000449828625144 0.9987489925657699 0  -0.06997826535799688 0.9975485163025836 0  -0.08992401365612987 0.9959486290808237 0  -0.1098337570523394 0.9939499714833577 0  -0.1296995238344082 0.9915533437577263 0  -0.1495133598980262 0.9887597054957303 0  -0.1692673319315537 0.9855701752492174 0  -0.1889535305924614 0.9819860300822226 0  -0.2085640736741705 0.9780087050596407 0  -0.2280911092620295 0.9736397926726377 0  -0.2475268188771627 0.9688810422010291 0  -0.2668634206069302 0.9637343590128811 0  -0.2860931722207475 0.9582018038016156 0  -0.3052083742700173 0.9522855917609239 0  -0.3242013731709289 0.9459880916978205 0  -0.3430645642688986 0.9393118250841894 0  -0.3617903948834154 0.9322594650472058 0  -0.380371367332077 0.924833835299037 0  -0.3988000419326071 0.9170379090062476 0  -0.4170690399816465 0.9088748075993678 0  -0.4351710467091335 0.9003477995230939 0  -0.4530988142070799 0.8914602989276292 0  -0.4708451643315824 0.8822158643016829 0  -0.4884029915768945 0.8726181970476778 0  -0.5057652659204197 0.8626711399997378 0  -0.5229250356374801 0.8523786758850437 0  -0.5398754300847342 0.8417449257291804 0  -0.5566096624511303 0.8307741472061098 0  -0.5731210324752971 0.8194707329334279 0  -0.589402929128276 0.8078392087135957 0  -0.6054488332605281 0.7958842317218411 0  -0.6212523202121542 0.7836105886414597 0  -0.6368070623852793 0.7710231937472639 0  -0.652106831777575 0.7581270869379444 0  -0.6671455024759069 0.7449274317181304 0  -0.6819170531091018 0.7314295131309636 0  -0.6964155692588616 0.7176387356420052 0  -0.7106352458278521 0.7035606209753273 0  -0.7245703893640187 0.6892008059026588 0  -0.7382154203402043 0.6745650399864608 0  -0.751564875388149 0.6596591832778469 0  -0.7646134094859813 0.6444892039702628 0  -0.7773557980983258 0.6290611760098654 0  -0.7897869392681683 0.6133812766635599 0  -0.8019018556596398 0.59745578404567 0  -0.8136956965509062 0.5812910746042258 0  -0.8251637397763595 0.5648936205678839 0  -0.836301393617339 0.5482699873544935 0  -0.8471041986406197 0.5314268309423542 0  -0.8575678294839372 0.5143708952052097 0  -0.8676880965878292 0.497109009212054 0  -0.8774609478731045 0.4796480844928216 0  -0.8868824703632656 0.4619951122710621 0  -0.8959488917512338 0.4441571606647088 0  -0.904656581909754 0.426141371856055 0  -0.9130020543448703 0.4079549592320783 0  -0.920981967591891 0.3896052044962555 0  -0.9285931265532872 0.3710994547530226 0  -0.9358324837779861 0.3524451195660473 0  -0.9426971406815462 0.3336496679914984 0  -0.9491843487067303 0.3147206255874888 0  -0.9552915104240065 0.2956655714008993 0  -0.9610161805715396 0.2764921349327862 0  -0.9663560670342555 0.2572079930835851 0  -0.9713090317615876 0.2378208670793361 0  -0.9758730916235353 0.2183385193801658 0  -0.9800464192046954 0.198768750572253 0  -0.9838273435359444 0.1791193962445354 0  -0.987214350763483 0.159398323851397 0  -0.9902060847549714 0.1396134295625972 0  -0.9928013476425149 0.1197726351017052 0  -0.9949991003022804 0.09988388457430147 0  -0.9967984627705549 0.07995514128721509 0  -0.9981987145960756 0.05999438456007793 0  -0.9991992951284931 0.04000960653046362 0  -0.9997998037428526 0.02000880895389464 0  -1 1.224646799147353e-16 0  -0.9997998037428526 -0.0200088089538944 0  -0.9991992951284931 -0.04000960653046338 0  -0.9981987145960756 -0.05999438456007812 0  -0.9967984627705549 -0.07995514128721484 0  -0.9949991003022806 -0.09988388457430078 0  -0.9928013476425149 -0.1197726351017049 0  -0.9902060847549715 -0.1396134295625965 0  -0.9872143507634831 -0.1593983238513963 0  -0.9838273435359444 -0.1791193962445356 0  -0.9800464192046953 -0.1987687505722532 0  -0.9758730916235354 -0.2183385193801655 0  -0.9713090317615876 -0.2378208670793363 0  -0.9663560670342556 -0.2572079930835848 0  -0.9610161805715396 -0.276492134932786 0  -0.9552915104240066 -0.2956655714008991 0  -0.9491843487067305 -0.3147206255874881 0  -0.9426971406815464 -0.3336496679914978 0  -0.9358324837779862 -0.3524451195660471 0  -0.9285931265532875 -0.371099454753022 0  -0.9209819675918909 -0.3896052044962557 0  -0.9130020543448704 -0.407954959232078 0  -0.9046565819097541 -0.4261413718560548 0  -0.8959488917512338 -0.4441571606647086 0  -0.8868824703632655 -0.4619951122710623 0  -0.8774609478731046 -0.4796480844928214 0  -0.8676880965878293 -0.4971090092120538 0  -0.8575678294839373 -0.5143708952052095 0  -0.84710419864062 -0.5314268309423537 0  -0.8363013936173395 -0.5482699873544929 0  -0.8251637397763596 -0.5648936205678838 0  -0.8136956965509061 -0.5812910746042259 0  -0.8019018556596399 -0.5974557840456699 0  -0.7897869392681682 -0.61338127666356 0  -0.777355798098326 -0.6290611760098652 0  -0.7646134094859816 -0.6444892039702625 0  -0.7515648753881492 -0.6596591832778468 0  -0.7382154203402048 -0.6745650399864603 0  -0.7245703893640192 -0.6892008059026583 0  -0.7106352458278522 -0.7035606209753272 0  -0.6964155692588621 -0.7176387356420046 0  -0.6819170531091017 -0.7314295131309637 0  -0.667145502475907 -0.7449274317181303 0  -0.6521068317775756 -0.758127086937944 0  -0.6368070623852792 -0.7710231937472641 0  -0.6212523202121544 -0.7836105886414596 0  -0.6054488332605283 -0.795884231721841 0  -0.5894029291282762 -0.8078392087135956 0  -0.5731210324752977 -0.8194707329334274 0  -0.5566096624511304 -0.8307741472061095 0  -0.5398754300847344 -0.8417449257291802 0  -0.5229250356374798 -0.8523786758850437 0  -0.5057652659204195 -0.8626711399997379 0  -0.4884029915768943 -0.872618197047678 0  -0.4708451643315825 -0.8822158643016828 0  -0.4530988142070805 -0.8914602989276289 0  -0.4351710467091333 -0.900347799523094 0  -0.4170690399816467 -0.9088748075993677 0  -0.3988000419326073 -0.9170379090062475 0  -0.3803713673320777 -0.9248338352990366 0  -0.3617903948834162 -0.9322594650472055 0  -0.3430645642688988 -0.9393118250841893 0  -0.3242013731709283 -0.9459880916978207 0  -0.3052083742700169 -0.9522855917609241 0  -0.2860931722207477 -0.9582018038016155 0  -0.2668634206069305 -0.963734359012881 0  -0.2475268188771631 -0.968881042201029 0  -0.2280911092620301 -0.9736397926726376 0  -0.2085640736741706 -0.9780087050596407 0  -0.1889535305924619 -0.9819860300822225 0  -0.1692673319315544 -0.9855701752492173 0  -0.1495133598980269 -0.9887597054957302 0  -0.1296995238344092 -0.9915533437577262 0  -0.1098337570523396 -0.9939499714833577 0  -0.08992401365612945 -0.9959486290808237 0  -0.06997826535799691 -0.9975485163025836 0  -0.05000449828625168 -0.9987489925657699 0  -0.030010709787
[...]
<PointData  Scalars="Displacement"> 
<DataArray  type="Float64"  Name="Displacement"  format="ascii">0.0000000000000000e+00  0.0000000000000000e+00  0.0000000000000000e+00  0.0000000000000000e+00  0.0000000000000000e+00  0.0000000000000000e+00  0.0000000000000000e+00  0.0000000000000000e+00  0.0000000000000000e+00  0.0000000000000000e+00  0.0000000000000000e+00  0.0000000000000000e+00  0.0000000000000000e+00  0.0000000000000000e+00  0.0000000000000000e+00  0.0000000000000000e+00  0.0000000000000000e+00  0.0000000000000000e+00  0.0000000000000000e+00  0.0000000000000000e+00  0.0000000000000000e+00  0.0000000000000000e+00  0.0000000000000000e+00  0.0000000000000000e+00  0.0000000000000000e+00  0.0000000000000000e+00  0.0000000000000000e+00  0.0000000000000000e+00  0.0000000000000000e+00  0.0000000000000000e+00  0.0000000000000000e+00  0.0000000000000000e+00  0.0000000000000000e+00  0.0000000000000000e+00  0.0000000000000000e+00  0.0000000000000000e+00  0.0000000000000000e+00  0.0000000000000000e+00  0.0000000000000000e+00  0.0000000000000000e+00  0.0000000000000000e+00  0.0000000000000000e+00  0.0000000000000000e+00  0.0000000000000000e+00  0.0000000000000000e+00  0.0000000000000000e+00  0.0000000000000000e+00  0.0000000000000000e+00  0.0000000000000000e+00  0.0000000000000000e+00  0.0000000000000000e+00  0.0000000000000000e+00  0.0000000000000000e+00  0.0000000000000000e+00  0.0000000000000000e+00  0.0000000000000000e+00  0.0000000000000000e+00  0.0000000000000000e+00  0.0000000000000000e+00  0.0000000000000000e+00  0.0000000000000000e+00  0.0000000000000000e+00  0.0000000000000000e+00  0.0000000000000000e+00  0.0000000000000000e+00  0.0000000000000000e+00  0.0000000000000000e+00  0.0000000000000000e+00  0.0000000000000000e+00  0.0000000000000000e+00  0.0000000000000000e+00  0.0000000000000000e+00  0.0000000000000000e+00  0.0000000000000000e+00  0.0000000000000000e+00  0.0000000000000000e+00  0.0000000000000000e+00  0.0000000000000000e+00  0.0000000000000000e+00  0.0000000000000000e+00  0.0000000000000000e+00  0.0000000000000000e+00  0.0000000000000000e+00  0.0000000000000000e+00  0.0000000000000000e+00  0.0000000000000000e+00  0.0000000000000000e+00  0.0000000000000000e+00  0.0000000000000000e+00  0.0000000000000000e+00  0.0000000000000000e+00  0.0000000000000000e+00  0.0000000000000000e+00  0.0000000000000000e+00  0.0000000000000000e+00  0.0000000000000000e+00  0.0000000000000000e+00  0.0000000000000000e+00  0.0000000000000000e+00  0.0000000000000000e+00  0.0000000000000000e+00  0.0000000000000000e+00  0.0000000000000000e+00  0.0000000000000000e+00  0.0000000000000000e+00  0.0000000000000000e+00  0.0000000000000000e+00  0.0000000000000000e+00  0.0000000000000000e+00  0.0000000000000000e+00  0.0000000000000000e+00  0.0000000000000000e+00  0.0000000000000000e+00  0.0000000000000000e+00  0.0000000000000000e+00  0.0000000000000000e+00  0.0000000000000000e+00  0.0000000000000000e+00  0.0000000000000000e+00  0.0000000000000000e+00  0.0000000000000000e+00  0.0000000000000000e+00  0.0000000000000000e+00  0.0000000000000000e+00  0.0000000000000000e+00  0.0000000000000000e+00  0.0000000000000000e+00  0.0000000000000000e+00  0.0000000000000000e+00  0.0000000000000000e+00  0.0000000000000000e+00  0.0000000000000000e+00  0.0000000000000000e+00  0.0000000000000000e+00  0.0000000000000000e+00  0.0000000000000000e+00  0.0000000000000000e+00  0.0000000000000000e+00  0.0000000000000000e+00  0.0000000000000000e+00  0.0000000000000000e+00  0.0000000000000000e+00  0.0000000000000000e+00  0.0000000000000000e+00  0.0000000000000000e+00  0.0000000000000000e+00  0.0000000000000000e+00  0.0000000000000000e+00  0.0000000000000000e+00  0.0000000000000000e+00  0.0000000000000000e+00  0.0000000000000000e+00  0.0000000000000000e+00  0.0000000000000000e+00  0.0000000000000000e+00  0.0000000000000000e+00  0.0000000000000000e+00  0.0000000000000000e+00  0.0000000000000000e+00  0.0000000000000000e+00  0.0000000000000000e+00  0.0000000000000000e+00  0.0000000000000000e+00  0.0000000000000000e+00  0.0000000000000000e+00  0.0000000000000000e+00  0.0000000000000000e+00  0.0000000000000000e+00  0.0000000000000000e+00  0.0000000000000000e+00  0.0000000000000000e+00  0.0000000000000000e+00  0.0000000000000000e+00  0.0000000000000000e+00  0.0000000000000000e+00  0.0000000000000000e+00  0.0000000000000000e+00  0.0000000000000000e+00  0.0000000000000000e+00  0.0000000000000000e+00  0.0000000000000000e+00  0.0000000000000000e+00  0.0000000000000000e+00  0.0000000000000000e+00  0.0000000000000000e+00  0.0000000000000000e+00  0.0000000000000000e+00  0.0000000000000000e+00  0.0000000000000000e+00  0.0000000000000000e+00  0.0000000000000000e+00  0.0000000000000000e+00  0.0000000000000000e+00  0.0000000000000000e+00  0.0000000000000000e+00  0.0000000000000000e+00  0.0000000000000000e+00  0.0000000000000000e+00  0.0000000000000000e+00  0.0000000000000000e+00  0.0000000000000000e+00  0.0000000000000000e+00  0.0000000000000000e+00  0.0000000000000000e+00  0.0000000000000000e+00  0.0000000000000000e+00  0.0000000000000000e+00  0.0000000000000000e+00  0.0000000000000000e+00  0.0000000000000000e+00  0.0000000000000000e+00  0.0000000000000000e+00  0.0000000000000000e+00  0.0000000000000000e+00  0.0000000000000000e+00  0.0000000000000000e+00  0.0000000000000000e+00  0.0000000000000000e+00  0.0000000000000000e+00  0.0000000000000000e+00  0.0000000000000000e+00  0.0000000000000000e+00  0.0000000000000000e+00  0.0000000000000000e+00  0.0000000000000000e+00  0.0000000000000000e+00  0.0000000000000000e+00  0.0000000000000000e+00  0.0000000000000000e+00  0.0000000000000000e+00  0.0000000000000000e+00  0.0000000000000000e+00  0.0000000000000000e+00  0.0000000000000000e+00  0.0000000000000000e+00  0.0000000000000000e+00  0.0000000000000000e+00  0.0000000000000000e+00  0.0000000000000000e+00  0.0000000000000000e+00  0.0000000000000000e+00  0.0000000000000000e+00  0.0000000000000000e+00  0.0000000000000000e+00  0.0000000000000000e+00  0.0000000000000000e+00  0.0000000000000000e+00  0.0000000000000000e+00  0.0000000000000000e+00  0.0000000000000000e+00  0.0000000000000000e+00  0.0000000000000000e+00  0.0000000000000000e+00  0.0000000000000000e+00  0.0000000000000000e+00  0.0000000000000000e+00  0.0000000000000000e+00  0.0000000000000000e+00  0.0000000000000000e+00  0.0000000000000000e+00  0.0000000000000000e+00  0.0000000000000000e+00  0.0000000000000000e+00  0.0000000000000000e+00  0.0000000000000000e+00  0.0000000000000000e+00  0.0000000000000000e+00  0.0000000000000000e+00  0.0000000000000000e+00  0.0000000000000000e+00  0.0000000000000000e+00  0.0000000000000000e+00  0.0000000000000000e+00  0.0000000000000000e+00  0.0000000000000000e+00  0.0000000000000000e+00  0.0000000000000000e+00  0.0000000000000000e+00  0.0000000000000000e+00  0.0000000000000000e+00  0.0000000000000000e+00  0.0000000000000000e+00  0.0000000000000000e+00  0.0000000000000000e+00  0.0000000000000000e+00  0.0000000000000000e+00  0.0000000000000000e+00  0.0000000000000000e+00  0.0000000000000000e+00  0.0000000000000000e+00  0.0000000000000000e+00  0.0000000000000000e+00  0.0000000000000000e+00  0.0000000000000000e+00  0.0000000000000000e+00  0.0000000000000000e+00  0.0000000000000000e+00  0.0000000000000000e+00  0.0000000000000000e+00  0.0000000000000000e+00  0.0000000000000000e+00  0.0000000000000000e+00  0.0000000000000000e+00  0.0000000000000000e+00  0.0000000000000000e+00  0.0000000000000000e+00  0.0000000000000000e+00  0.0000000000000000e+00  0.0000000000000000e+00  0.0000000000000000e+00  0.0000000000000000e+00  0.0000000000000000e+00  0.0000000000000000e+00  0.0000000000000000e+00  1.2897160441786551e-01  -6.4581062589730912e-02  -6.5010770348616437e-02  -6.4832460214604135e-02  -6.4625011641486041e-02  -6.4793031165445672e-02  -4.8951478848420892e-03  4.8190236173207320e-04  3.3450502539370078e-04  3.8379432490873443e-04  4.5130775454092813e-04  -1.3335010198942476e-01  3.3610767181960189e-04  3.4193120566170199e-04  -1.1214101408079241e-01  -9.3024072336415423e-02  1.3018157447449452e-04  1.7074527897058216e-04  -4.5525838945282312e-05  4.3992006357494148e-04  1.2888512388727950e-04  2.8295070792513341e-04  -8.9813712126959901e-05  -1.8260786081644947e-01  -1.8167229662303594e-01  -1.4396915311737182e-03  3.3324558640938150e-05  3.7890846619569832e-04  1.5588491296192531e-04  -1.0101743434288439e-01  2.1688024437668420e-04  -6.8235854159388085e-02  9.4971278144630286e-02  -7.9750585549098724e-02  9.8406896377630317e-05  1.9138427584982124e-04  -1.4603708845708734e-05  6.8633863048614201e-05  1.9850657221341664e-04  -1.1939380873036108e-02  -8.0645032607983818e-03  -5.6592352714617379e-03  -4.2234004173066454e-03  1.5875327199856415e-01  -2.4921396628516779e-04  1.5191388103833722e-04  1.4006195272225360e-04  -1.4819199911528351e-05  -7.6859759112750631e-04  -1.7412166842626562e-03  1.7069676101855380e-04  -1.2084771704954847e-02  -3.5304060403276672e-03  -1.1405247975951886e-01  3.7567266307051804e-05  1.8386447283176885e-01  1.1121494303076484e-04  1.7401748609781431e-04  -1.6462408808024021e-01  4.6373312340818317e-04  2.8642225295081995e-04  1.0526588552154517e-04  2.1343705687336786e-04  -6.0626231055737022e-05  -1.6491553007592422e-01  4.8222969093276152e-03  -1.8705437962605645e-01  -1.1392368673312994e-01  -1.8742578130532064e-01  2.2265111736058057e-01  -1.6295480880472207e-01  -1.4203090053948877e-03  1.5205086873713248e-04  1.5427426575847527e-04  2.5714659016457550e-04  -1.8656225972132953e-01  1.3060928946465733e-04  -1.6779481870105073e-01  -1.8601824884600987e-01  3.0052451624235766e-04  8.0360304458351376e-05  -1.7870961245945879e-01  3.6722744565354258e-04  8.0455979114499209e-05  1.7005350468581959e-04  2.3581734988107322e-01  1.0868342024108549e-04  6.9432513885295748e-05  2.4575613850392390e-04  -1.8902683350382074e-01  3.2489178001906659e-04  1.2551836425919149e-04  2.5156461150151546e-04  1.0170684347973787e-04  4.2803254345327398e-04  1.7306520287157076e-01  1.3231743389818714e-04  -5.3954682457178367e-05  1.0405715136948313e-04  1.5669367138461702e-04  3.4882715099812808e-04  3.7045301024226815e-05  1.6902027788912814e-04  -1.3275997268046136e-01  -1.8382039031314624e-02  -1.8896911788078414e-02  -1.5068479031297469e-01  2.1154638443594744e-04  3.2023803629861172e-04  7.9387670002486269e-06  -1.5786231015175201e-01  2.5049152015582931e-04  -1.6912146968975131e-04  -8.4270817854098664e-04  -3.1938548767668955e-04  -2.6578698079525448e-04  -1.1135865931527906e-04  6.0270296058510909e-05  1.3159674360545574e-04  2.2366860126070104e-01  -1.3862249156480930e-01  7.7328031602445286e-05  -1.0006837729179398e-01  8.9679804483514750e-05  6.3025416197869273e-05  1.0014479910151800e-04  2.3721407194083455e-04  2.2888452079743125e-04  1.7433581430615906e-04  2.6107747774931572e-04  2.4447887118540421e-04  1.3721076136738848e-04  3.8587581978730515e-05  -1.0961054263800434e-01  -8.9748680937388873e-04  2.2347034001151349e-04  3.7358524416828292e-05  -7.8862239387877453e-02  -1.8949764194449936e-01  -1.5327631489552707e-01  2.4435874776404179e-01  -7.8030145340941756e-02  4.9251296332339160e-05  -1.5817851727958537e-01  -6.4566043274069630e-04  3.0827589200665441e-04  7.8514342537332050e-05  -1.2400510407698093e-01  1.5436446252402428e-01  5.4566103658152360e-05  2.9390261005072778e-04  -4.2657073815052619e-04  -1.8825653206235168e-01  1.7080230632448174e-04  5.4494275335621887e-05  -1.5552203286011717e-04  -8.1038534709200127e-05  1.3483196897239939e-04  -3.5120321784944118e-05  2.7710659031754593e-04  4.2024410297026519e-04  2.8030166491713518e-04  4.4140226733111056e-04  -5.2204495306072737e-05  1.6108898928509513e-04  -4.9421908666103354e-02  2.2821249676971888e-04  1.3079359807849318e-04  3.4138467898509734e-04  2.5750424648527911e-04  -2.0242909046458805e-03  2.3758872683346630e-01  8.9838684133104811e-05  -1.8554076415367324e-01  -1.3326717331063175e-04  -1.2112680670782286e-01  -6.7741530059869399e-07  2.4637402217333084e-05  2.3037114198386384e-04  -8.6274334480266918e-02  1.7768208966577093e-04  -2.8061288631225464e-02  -1.1726051585954898e-03  2.6302924965974344e-02  8.4947885150701120e-05  -1.3302156149811702e-02  -4.1708782234339820e-06  -8.2334448468301583e-02  -3.5091902216060596e-05  2.6871855106433239e-04  4.1443961535941163e-05  1.5639004400999165e-01  9.5803325278683536e-05  -9.9883536263787112e-05  -2.6725382286431607e-02  -1.7423978441980922e-01  -1.9115454506195192e-04  3.9833467713174122e-04  -4.7664906952242937e-02  3.1070873494755315e-04  2.5511156764968804e-05  -1.8526852411019439e-03  -6.9619532562076980e-02  2.1505513454849669e-04  1.2904227821991960e-04  2.3782313798437093e-04  2.3050725123607848e-04  -3.0890705532245485e-02  -1.0638187791193859e-04  7.4606744635582467e-05  2.7922164213643220e-04  1.2904268191760793e-01  2.3050154304379403e-01  1.7152272139231322e-04  2.5507395716836988e-04  1.8709163660212915e-04  -9.6942369748060933e-02  7.8871303970338142e-05  1.2493177725019406e-04  1.0683676245006778e-04  -2.3208032830419985e-05  2.8086675973182032e-04  -1.6765507534906698e-01  7.0149670509208836e-04  3.4396645476585423e-04  7.7287968467345470e-05  2.0087126277812769e-04  -7.9624229284678234e-05  1.6155159156514768e-04  2.0375056731730662e-04  1.0915285078590737e-04  2.8612040202725243e-05  -7.6148568244457527e-05  -2.1166999314350979e-05  -8.0706405308199095e-05  -1.2291515335944479e-01  -6.5795274410494081e-04  4.2126688023725413e-04  -5.1242119774314046e-06  -5.7978293183930142e-02  -1.5003333350505157e-01  1.9630286697979696e-04  2.7601481559824139e-04  -5.8986244096698916e-05  -5.7938209740538343e-02  2.6866555339827607e-05  -5.5205712794541996e-05  -1.4179914383045752e-04  -1.8974932182108481e-01  -9.1965148148273279e-02  -7.3176694965857480e-03  -1.0546789200117311e-02  -1.0090597323488523e-01  2.3101631079028875e-01  2.8318967188993235e-04  -1.7961761727568509e-01  -6.9357187184206510e-05  -1.5594643695933526e-02  3.2296243121133746e-04  3.1049878907082797e-04  1.6297154165585332e-04  2.3864650188365160e-04  1.5435217998844268e-04  -1.4749274902481925e-03  -1.0057060251233756e-01  -1.7407236880185695e-01  -2.7435703905990832e-05  4.2104995534216275e-04  2.4279374403566925e-04  -1.0231597585677620e-03  7.5493661854258692e-06  -1.8912018520375934e-01  -1.1040546909735913e-01  2.1188635825484861e-04  4.6021273566913320e-07  3.0489542415163776e-04  -1.8213510421658452e-01  -1.6774415647207322e-01  -1.8791434742736604e-01  -1.8861164188653062e-01  -1.5567069720464133e-01  7.1668802054557423e-03  5.2247511724342055e-02  -7.2160899389559424e-05  2.4167508830551777e-04  2.3923142923529028e-04  -1.5280997170244251e-01  4.2502373910867776e-04  3.3917577679339674e-04  -1.6818108878646831e-01  4.0794944626789689e-02  -1.1339097793016027e-01  2.5939258574893297e-04  -5.0998159656162247e-03  9.9300493271593487e-02  4.8887614798071916e-05  -1.0974075725383475e-02  2.5555933824038138e-04  -2.0905146943736650e-04  -2.3084198978499322e-04  1.7624605989875075e-01  2.1832959542700389e-01  -1.6836541105898362e-01  -3.3340066820311605e-02  3.3493907478664221e-05  3.4805201340406332e-05  2.5430798710130050e-04  -4.3148403643286079e-04  1.3058324214789115e-04  1.8046766055274869e-04  -1.3442304510021359e-02  2.3788484806795484e-04  -1.5383061590313885e-01  1.5165757168046760e-05  5.3332831211970209e-02  -3.9758342661573957e-03  -2.1956106202373317e-03  2.0001315723934220e-04  1.4457303384035050e-04  -1.3701846751659847e-04  7.0053973008214176e-05  1.0018147861903615e-04  6.6910010964816181e-05  -1.8794871717257697e-01  1.6227605834436799e-05  1.0923822553180052e-04  2.3760774202847128e-04  -1.6662633702007967e-01  -1.9003340265242949e-01  -1.1219748655916915e-01  -1.9676089304419273e-05  1.8175437894964655e-04  3.3345181973865783e-04  -3.9027224447879788e-02  -1.8340763300468196e-01  1.6853521376777904e-04  -5.6909554893725713e-02  -1.8768734317655575e-01  4.8999736139318495e-04  -9.4816714552008337e-06  -1.1756341785214611e-04  -6.3862890205675496e-02  1.9025793994291371e-05  1.8366432482482562e-04  4.0651655092380429e-04  -3.5827343884662507e-05  2.1068607182681250e-04  1.6747319340047821e-04  -1.9504445394225009e-04  2.7197071162039376e-04  4.5688598492065674e-05  -6.8716166593260140e-05  6.6755242799028082e-05  -1.4959894647064605e-05  1.5053320375772467e-04  3.1482680431362162e-05  -7.2914281276030253e-03  2.0479785105173529e-01  2.2090795981778019e-04  1.8131884759783506e-01  1.0854700947703713e-01  3.0818103134912003e-05  1.0693452186322447e-04  -1.4293351443489888e-04  -1.4567462136403698e-04  -1.7224832875811957e-01  2.4463234494910243e-04  3.8440463495620348e-04  2.4933258339737890e-01  1.7431326727040058e-04  -6.8567467649885311e-05  -1.0371084937007343e-04  1.7044061594920779e-04  -1.8938127856996470e-01  -1.3578746831995783e-01  8.8238496257238364e-05  -4.6462295871321817e-05  2.1140222103238868e-01  -1.3398445765852620e-04  2.2103899596315687e-04  -2.4351998436203767e-02  1.9062568742479429e-04  1.9247109921793781e-04  -5.7653384627329142e-02  3.4647000360901767e-05  1.0680360422754911e-02  -6.4105523573829132e-05  1.8585673974637394e-04  -1.2612642105774694e-04  -1.6313376109581229e-01  -1.5708325873530534e-03  3.3398966417108291e-04  -2.3567807403317518e-03  2.6336501249797059e-04  5.7550960739974233e-05  -1.6412998669257148e-01  -2.1730770501199166e-05  -2.0199213559144497e-05  1.2653161385620985e-04  2.8382781146743893e-04  8.7629382221326025e-05  -1.1226568869690092e-02  1.5762098678965328e-05  -1.1443283317029258e-01  1.9664597574843405e-04  -1.4602712108006522e-02  -5.3319779009510437e-04  -1.7421928221275787e-05  -4.0918227996047216e-05  4.4841562129926022e-04  9.2721094459796602e-05  -3.6732831610942769e-04  -1.3410625611276633e-01  -1.8910604317848673e-01  5.6917438115339010e-02  -1.8736184917851606e-01  -1.6422854248890475e-04  -1.0923393649781940e-01  -7.4634681011646886e-02  2.7161246211258975e-04  -1.1997090494200098e-04  -8.8678982523152105e-05  3.7339071530809956e-04  1.1317043611433169e-04  1.0186291557696762e-04  -1.8434409673363611e-01  3.0099488324324418e-04  -2.8277449381165462e-05  1.9843028225307029e-04  -1.7170538748047053e-04  2.6537511511084608e-04  7.1585609798894417e-05  1.4845929997403062e-04  -9.8971600571880393e-05  -7.1705631737341318e-05  -2.1580157816420336e-04  4.2116284579671597e-04  -8.6060318776989139e-05  -6.2759872203283315e-02  -5.3055580191927203e-04  -5.3949964544356159e-03  -2.3985905741942716e-04  -2.9502396952978044e-02  -1.5847678161468490e-01  -2.1059123919077999e-04  -1.4795732733777905e-01  1.0848985762178478e-04  2.4355642759084226e-01  3.4022896996167070e-04  -5.7800060921078505e-02  -1.7282322640268150e-02  -1.7302507408769008e-01  2.0789724511256820e-04  1.1104487668793658e-04  -6.7432787242817295e-05  -8.7484921568414462e-02  3.7017643327027377e-04  -3.7202817938853008e-02  -6.5731701506630769e-02  2.7087831543215311e-04  -5.9209488768571686e-04  -9.4255315643280893e-05  2.3387037927864965e-02  -1.7030110271245327e-01  -8.1706468043453273e-02  2.9884009661669829e-04  -3.9525693172795047e-05  1.4475248712590922e-04  3.0157265062487603e-04  3.8339297280002812e-04  -2.1118608867949891e-03  1.1154672807411492e-06  -8.7161356210181895e-02  -3.6130580623557687e-02  -5.8247355643084846e-05  2.9911724791399065e-02  1.0156892861423984e-04  -3.8812794910315619e-02  3.5217361434507200e-04  1.6043454317633878e-04  2.6963498371897562e-04  5.1196017462290890e-04  8.8645859877921188e-05  5.5641435124822110e-05  9.3556001842144191e-05  1.9285045430450062e-04  -6.4453809162976262e-05  -1.8860259865998702e-01  -7.7795405250647042e-05  -5.2148676411409680e-04  2.0935786291259511e-04  -1.5081618282552930e-01  -1.9012663337312644e-03  -1.7703656499766188e-01  -1.5269061376304446e-04  -1.4708764566021107e-01  1.6116037299557253e-04  -9.4898389519909463e-05  6.4338015952659922e-05  -2.0539850105854841e-02  6.7309188103345985e-05  -9.7715061494770927e-05  -1.6251407971131296e-02  -1.0309823905578825e-02  1.4415896936363355e-04  2.