<?xml version="1.0"?>
<VTKFile type="UnstructuredGrid"  version="0.1"  >
<UnstructuredGrid>
<Piece  NumberOfPoints="20054" NumberOfCells="39478">
<Points>
<DataArray  type="Float64"  NumberOfComponents="3"  format="ascii">1 0 0  0.9997998037428526 0.02000880895389431 0  0.9991992951284931 0.04000960653046352 0  0.9981987145960756 0.05999438456007805 0  0.9967984627705549 0.07995514128721501 0  0.9949991003022806 0.09988388457430118 0  0.9928013476425149 0.1197726351017051 0  0.9902060847549715 0.139613429562597 0  0.987214350763483 0.1593983238513969 0  0.9838273435359444 0.1791193962445356 0  0.9800464192046954 0.198768750572253 0  0.9758730916235354 0.2183385193801655 0  0.9713090317615876 0.237820867079336 0  0.9663560670342555 0.2572079930835849 0  0.9610161805715396 0.2764921349327862 0  0.9552915104240066 0.2956655714008991 0  0.9491843487067304 0.3147206255874884 0  0.9426971406815462 0.3336496679914983 0  0.9358324837779861 0.3524451195660473 0  0.9285931265532873 0.3710994547530225 0  0.9209819675918909 0.3896052044962556 0  0.9130020543448703 0.4079549592320781 0  0.9046565819097542 0.4261413718560547 0  0.8959488917512338 0.4441571606647087 0  0.8868824703632656 0.4619951122710622 0  0.8774609478731046 0.4796480844928215 0  0.8676880965878291 0.4971090092120542 0  0.8575678294839372 0.5143708952052096 0  0.8471041986406199 0.5314268309423539 0  0.8363013936173391 0.5482699873544935 0  0.8251637397763597 0.5648936205678837 0  0.8136956965509062 0.5812910746042258 0  0.8019018556596399 0.5974557840456699 0  0.7897869392681683 0.6133812766635599 0  0.777355798098326 0.6290611760098652 0  0.7646134094859813 0.6444892039702628 0  0.7515648753881492 0.6596591832778468 0  0.7382154203402046 0.6745650399864606 0  0.7245703893640189 0.6892008059026586 0  0.7106352458278521 0.7035606209753273 0  0.6964155692588616 0.7176387356420051 0  0.6819170531091018 0.7314295131309636 0  0.6671455024759069 0.7449274317181303 0  0.6521068317775753 0.7581270869379442 0  0.6368070623852795 0.7710231937472638 0  0.6212523202121545 0.7836105886414595 0  0.6054488332605282 0.795884231721841 0  0.5894029291282759 0.8078392087135958 0  0.5731210324752972 0.8194707329334278 0  0.5566096624511305 0.8307741472061095 0  0.5398754300847343 0.8417449257291802 0  0.5229250356374803 0.8523786758850435 0  0.5057652659204196 0.8626711399997378 0  0.4884029915768944 0.8726181970476778 0  0.4708451643315825 0.8822158643016828 0  0.45309881420708 0.8914602989276292 0  0.4351710467091336 0.9003477995230937 0  0.4170690399816468 0.9088748075993677 0  0.398800041932607 0.9170379090062476 0  0.3803713673320772 0.9248338352990368 0  0.3617903948834157 0.9322594650472057 0  0.3430645642688987 0.9393118250841893 0  0.3242013731709288 0.9459880916978206 0  0.3052083742700172 0.952285591760924 0  0.2860931722207478 0.9582018038016155 0  0.2668634206069304 0.963734359012881 0  0.2475268188771628 0.9688810422010291 0  0.2280911092620296 0.9736397926726377 0  0.2085640736741707 0.9780087050596407 0  0.1889535305924618 0.9819860300822225 0  0.1692673319315541 0.9855701752492174 0  0.1495133598980264 0.9887597054957302 0  0.1296995238344084 0.9915533437577263 0  0.1098337570523395 0.9939499714833577 0  0.08992401365612977 0.9959486290808237 0  0.06997826535799723 0.9975485163025836 0  0.05000449828625179 0.9987489925657699 0  0.03001070978771124 0.9995495772086734 0  0.01000490522562346 0.9999499496831961 0  -0.01000490522562333 0.9999499496831961 0  -0.03001070978771133 0.9995495772086734 0  -0.05000449828625144 0.9987489925657699 0  -0.06997826535799688 0.9975485163025836 0  -0.08992401365612987 0.9959486290808237 0  -0.1098337570523394 0.9939499714833577 0  -0.1296995238344082 0.9915533437577263 0  -0.1495133598980262 0.9887597054957303 0  -0.1692673319315537 0.9855701752492174 0  -0.1889535305924614 0.9819860300822226 0  -0.2085640736741705 0.9780087050596407 0  -0.2280911092620295 0.9736397926726377 0  -0.2475268188771627 0.9688810422010291 0  -0.2668634206069302 0.9637343590128811 0  -0.2860931722207475 0.9582018038016156 0  -0.3052083742700173 0.9522855917609239 0  -0.3242013731709289 0.9459880916978205 0  -0.3430645642688986 0.9393118250841894 0  -0.3617903948834154 0.9322594650472058 0  -0.380371367332077 0.924833835299037 0  -0.3988000419326071 0.9170379090062476 0  -0.4170690399816465 0.9088748075993678 0  -0.4351710467091335 0.9003477995230939 0  -0.4530988142070799 0.8914602989276292 0  -0.4708451643315824 0.8822158643016829 0  -0.4884029915768945 0.8726181970476778 0  -0.5057652659204197 0.8626711399997378 0  -0.5229250356374801 0.8523786758850437 0  -0.5398754300847342 0.8417449257291804 0  -0.5566096624511303 0.8307741472061098 0  -0.5731210324752971 0.8194707329334279 0  -0.589402929128276 0.8078392087135957 0  -0.6054488332605281 0.7958842317218411 0  -0.6212523202121542 0.7836105886414597 0  -0.6368070623852793 0.7710231937472639 0  -0.652106831777575 0.7581270869379444 0  -0.6671455024759069 0.7449274317181304 0  -0.6819170531091018 0.7314295131309636 0  -0.6964155692588616 0.7176387356420052 0  -0.7106352458278521 0.7035606209753273 0  -0.7245703893640187 0.6892008059026588 0  -0.7382154203402043 0.6745650399864608 0  -0.751564875388149 0.6596591832778469 0  -0.7646134094859813 0.6444892039702628 0  -0.7773557980983258 0.6290611760098654 0  -0.7897869392681683 0.6133812766635599 0  -0.8019018556596398 0.59745578404567 0  -0.8136956965509062 0.5812910746042258 0  -0.8251637397763595 0.5648936205678839 0  -0.836301393617339 0.5482699873544935 0  -0.8471041986406197 0.5314268309423542 0  -0.8575678294839372 0.5143708952052097 0  -0.8676880965878292 0.497109009212054 0  -0.8774609478731045 0.4796480844928216 0  -0.8868824703632656 0.4619951122710621 0  -0.8959488917512338 0.4441571606647088 0  -0.904656581909754 0.426141371856055 0  -0.9130020543448703 0.4079549592320783 0  -0.920981967591891 0.3896052044962555 0  -0.9285931265532872 0.3710994547530226 0  -0.9358324837779861 0.3524451195660473 0  -0.9426971406815462 0.3336496679914984 0  -0.9491843487067303 0.3147206255874888 0  -0.9552915104240065 0.2956655714008993 0  -0.9610161805715396 0.2764921349327862 0  -0.9663560670342555 0.2572079930835851 0  -0.9713090317615876 0.2378208670793361 0  -0.9758730916235353 0.2183385193801658 0  -0.9800464192046954 0.198768750572253 0  -0.9838273435359444 0.1791193962445354 0  -0.987214350763483 0.159398323851397 0  -0.9902060847549714 0.1396134295625972 0  -0.9928013476425149 0.1197726351017052 0  -0.9949991003022804 0.09988388457430147 0  -0.9967984627705549 0.07995514128721509 0  -0.9981987145960756 0.05999438456007793 0  -0.9991992951284931 0.04000960653046362 0  -0.9997998037428526 0.02000880895389464 0  -1 1.224646799147353e-16 0  -0.9997998037428526 -0.0200088089538944 0  -0.9991992951284931 -0.04000960653046338 0  -0.9981987145960756 -0.05999438456007812 0  -0.9967984627705549 -0.07995514128721484 0  -0.9949991003022806 -0.09988388457430078 0  -0.9928013476425149 -0.1197726351017049 0  -0.9902060847549715 -0.1396134295625965 0  -0.9872143507634831 -0.1593983238513963 0  -0.9838273435359444 -0.1791193962445356 0  -0.9800464192046953 -0.1987687505722532 0  -0.9758730916235354 -0.2183385193801655 0  -0.9713090317615876 -0.2378208670793363 0  -0.9663560670342556 -0.2572079930835848 0  -0.9610161805715396 -0.276492134932786 0  -0.9552915104240066 -0.2956655714008991 0  -0.9491843487067305 -0.3147206255874881 0  -0.9426971406815464 -0.3336496679914978 0  -0.9358324837779862 -0.3524451195660471 0  -0.9285931265532875 -0.371099454753022 0  -0.9209819675918909 -0.3896052044962557 0  -0.9130020543448704 -0.407954959232078 0  -0.9046565819097541 -0.4261413718560548 0  -0.8959488917512338 -0.4441571606647086 0  -0.8868824703632655 -0.4619951122710623 0  -0.8774609478731046 -0.4796480844928214 0  -0.8676880965878293 -0.4971090092120538 0  -0.8575678294839373 -0.5143708952052095 0  -0.84710419864062 -0.5314268309423537 0  -0.8363013936173395 -0.5482699873544929 0  -0.8251637397763596 -0.5648936205678838 0  -0.8136956965509061 -0.5812910746042259 0  -0.8019018556596399 -0.5974557840456699 0  -0.7897869392681682 -0.61338127666356 0  -0.777355798098326 -0.6290611760098652 0  -0.7646134094859816 -0.6444892039702625 0  -0.7515648753881492 -0.6596591832778468 0  -0.7382154203402048 -0.6745650399864603 0  -0.7245703893640192 -0.6892008059026583 0  -0.7106352458278522 -0.7035606209753272 0  -0.6964155692588621 -0.7176387356420046 0  -0.6819170531091017 -0.7314295131309637 0  -0.667145502475907 -0.7449274317181303 0  -0.6521068317775756 -0.758127086937944 0  -0.6368070623852792 -0.7710231937472641 0  -0.6212523202121544 -0.7836105886414596 0  -0.6054488332605283 -0.795884231721841 0  -0.5894029291282762 -0.8078392087135956 0  -0.5731210324752977 -0.8194707329334274 0  -0.5566096624511304 -0.8307741472061095 0  -0.5398754300847344 -0.8417449257291802 0  -0.5229250356374798 -0.8523786758850437 0  -0.5057652659204195 -0.8626711399997379 0  -0.4884029915768943 -0.872618197047678 0  -0.4708451643315825 -0.8822158643016828 0  -0.4530988142070805 -0.8914602989276289 0  -0.4351710467091333 -0.900347799523094 0  -0.4170690399816467 -0.9088748075993677 0  -0.3988000419326073 -0.9170379090062475 0  -0.3803713673320777 -0.9248338352990366 0  -0.3617903948834162 -0.9322594650472055 0  -0.3430645642688988 -0.9393118250841893 0  -0.3242013731709283 -0.9459880916978207 0  -0.3052083742700169 -0.9522855917609241 0  -0.2860931722207477 -0.9582018038016155 0  -0.2668634206069305 -0.963734359012881 0  -0.2475268188771631 -0.968881042201029 0  -0.2280911092620301 -0.9736397926726376 0  -0.2085640736741706 -0.9780087050596407 0  -0.1889535305924619 -0.9819860300822225 0  -0.1692673319315544 -0.9855701752492173 0  -0.1495133598980269 -0.9887597054957302 0  -0.1296995238344092 -0.9915533437577262 0  -0.1098337570523396 -0.9939499714833577 0  -0.08992401365612945 -0.9959486290808237 0  -0.06997826535799691 -0.9975485163025836 0  -0.05000449828625168 -0.9987489925657699 0  -0.030010709787
[...]
<PointData  Scalars="Displacement"> 
<DataArray  type="Float64"  Name="Displacement"  format="ascii">0.0000000000000000e+00  0.0000000000000000e+00  0.0000000000000000e+00  0.0000000000000000e+00  0.0000000000000000e+00  0.0000000000000000e+00  0.0000000000000000e+00  0.0000000000000000e+00  0.0000000000000000e+00  0.0000000000000000e+00  0.0000000000000000e+00  0.0000000000000000e+00  0.0000000000000000e+00  0.0000000000000000e+00  0.0000000000000000e+00  0.0000000000000000e+00  0.0000000000000000e+00  0.0000000000000000e+00  0.0000000000000000e+00  0.0000000000000000e+00  0.0000000000000000e+00  0.0000000000000000e+00  0.0000000000000000e+00  0.0000000000000000e+00  0.0000000000000000e+00  0.0000000000000000e+00  0.0000000000000000e+00  0.0000000000000000e+00  0.0000000000000000e+00  0.0000000000000000e+00  0.0000000000000000e+00  0.0000000000000000e+00  0.0000000000000000e+00  0.0000000000000000e+00  0.0000000000000000e+00  0.0000000000000000e+00  0.0000000000000000e+00  0.0000000000000000e+00  0.0000000000000000e+00  0.0000000000000000e+00  0.0000000000000000e+00  0.0000000000000000e+00  0.0000000000000000e+00  0.0000000000000000e+00  0.0000000000000000e+00  0.0000000000000000e+00  0.0000000000000000e+00  0.0000000000000000e+00  0.0000000000000000e+00  0.0000000000000000e+00  0.0000000000000000e+00  0.0000000000000000e+00  0.0000000000000000e+00  0.0000000000000000e+00  0.0000000000000000e+00  0.0000000000000000e+00  0.0000000000000000e+00  0.0000000000000000e+00  0.0000000000000000e+00  0.0000000000000000e+00  0.0000000000000000e+00  0.0000000000000000e+00  0.0000000000000000e+00  0.0000000000000000e+00  0.0000000000000000e+00  0.0000000000000000e+00  0.0000000000000000e+00  0.0000000000000000e+00  0.0000000000000000e+00  0.0000000000000000e+00  0.0000000000000000e+00  0.0000000000000000e+00  0.0000000000000000e+00  0.0000000000000000e+00  0.0000000000000000e+00  0.0000000000000000e+00  0.0000000000000000e+00  0.0000000000000000e+00  0.0000000000000000e+00  0.0000000000000000e+00  0.0000000000000000e+00  0.0000000000000000e+00  0.0000000000000000e+00  0.0000000000000000e+00  0.0000000000000000e+00  0.0000000000000000e+00  0.0000000000000000e+00  0.0000000000000000e+00  0.0000000000000000e+00  0.0000000000000000e+00  0.0000000000000000e+00  0.0000000000000000e+00  0.0000000000000000e+00  0.0000000000000000e+00  0.0000000000000000e+00  0.0000000000000000e+00  0.0000000000000000e+00  0.0000000000000000e+00  0.0000000000000000e+00  0.0000000000000000e+00  0.0000000000000000e+00  0.0000000000000000e+00  0.0000000000000000e+00  0.0000000000000000e+00  0.0000000000000000e+00  0.0000000000000000e+00  0.0000000000000000e+00  0.0000000000000000e+00  0.0000000000000000e+00  0.0000000000000000e+00  0.0000000000000000e+00  0.0000000000000000e+00  0.0000000000000000e+00  0.0000000000000000e+00  0.0000000000000000e+00  0.0000000000000000e+00  0.0000000000000000e+00  0.0000000000000000e+00  0.0000000000000000e+00  0.0000000000000000e+00  0.0000000000000000e+00  0.0000000000000000e+00  0.0000000000000000e+00  0.0000000000000000e+00  0.0000000000000000e+00  0.0000000000000000e+00  0.0000000000000000e+00  0.0000000000000000e+00  0.0000000000000000e+00  0.0000000000000000e+00  0.0000000000000000e+00  0.0000000000000000e+00  0.0000000000000000e+00  0.0000000000000000e+00  0.0000000000000000e+00  0.0000000000000000e+00  0.0000000000000000e+00  0.0000000000000000e+00  0.0000000000000000e+00  0.0000000000000000e+00  0.0000000000000000e+00  0.0000000000000000e+00  0.0000000000000000e+00  0.0000000000000000e+00  0.0000000000000000e+00  0.0000000000000000e+00  0.0000000000000000e+00  0.0000000000000000e+00  0.0000000000000000e+00  0.0000000000000000e+00  0.0000000000000000e+00  0.0000000000000000e+00  0.0000000000000000e+00  0.0000000000000000e+00  0.0000000000000000e+00  0.0000000000000000e+00  0.0000000000000000e+00  0.0000000000000000e+00  0.0000000000000000e+00  0.0000000000000000e+00  0.0000000000000000e+00  0.0000000000000000e+00  0.0000000000000000e+00  0.0000000000000000e+00  0.0000000000000000e+00  0.0000000000000000e+00  0.0000000000000000e+00  0.0000000000000000e+00  0.0000000000000000e+00  0.0000000000000000e+00  0.0000000000000000e+00  0.0000000000000000e+00  0.0000000000000000e+00  0.0000000000000000e+00  0.0000000000000000e+00  0.0000000000000000e+00  0.0000000000000000e+00  0.0000000000000000e+00  0.0000000000000000e+00  0.0000000000000000e+00  0.0000000000000000e+00  0.0000000000000000e+00  0.0000000000000000e+00  0.0000000000000000e+00  0.0000000000000000e+00  0.0000000000000000e+00  0.0000000000000000e+00  0.0000000000000000e+00  0.0000000000000000e+00  0.0000000000000000e+00  0.0000000000000000e+00  0.0000000000000000e+00  0.0000000000000000e+00  0.0000000000000000e+00  0.0000000000000000e+00  0.0000000000000000e+00  0.0000000000000000e+00  0.0000000000000000e+00  0.0000000000000000e+00  0.0000000000000000e+00  0.0000000000000000e+00  0.0000000000000000e+00  0.0000000000000000e+00  0.0000000000000000e+00  0.0000000000000000e+00  0.0000000000000000e+00  0.0000000000000000e+00  0.0000000000000000e+00  0.0000000000000000e+00  0.0000000000000000e+00  0.0000000000000000e+00  0.0000000000000000e+00  0.0000000000000000e+00  0.0000000000000000e+00  0.0000000000000000e+00  0.0000000000000000e+00  0.0000000000000000e+00  0.0000000000000000e+00  0.0000000000000000e+00  0.0000000000000000e+00  0.0000000000000000e+00  0.0000000000000000e+00  0.0000000000000000e+00  0.0000000000000000e+00  0.0000000000000000e+00  0.0000000000000000e+00  0.0000000000000000e+00  0.0000000000000000e+00  0.0000000000000000e+00  0.0000000000000000e+00  0.0000000000000000e+00  0.0000000000000000e+00  0.0000000000000000e+00  0.0000000000000000e+00  0.0000000000000000e+00  0.0000000000000000e+00  0.0000000000000000e+00  0.0000000000000000e+00  0.0000000000000000e+00  0.0000000000000000e+00  0.0000000000000000e+00  0.0000000000000000e+00  0.0000000000000000e+00  0.0000000000000000e+00  0.0000000000000000e+00  0.0000000000000000e+00  0.0000000000000000e+00  0.0000000000000000e+00  0.0000000000000000e+00  0.0000000000000000e+00  0.0000000000000000e+00  0.0000000000000000e+00  0.0000000000000000e+00  0.0000000000000000e+00  0.0000000000000000e+00  0.0000000000000000e+00  0.0000000000000000e+00  0.0000000000000000e+00  0.0000000000000000e+00  0.0000000000000000e+00  0.0000000000000000e+00  0.0000000000000000e+00  0.0000000000000000e+00  0.0000000000000000e+00  0.0000000000000000e+00  0.0000000000000000e+00  0.0000000000000000e+00  0.0000000000000000e+00  0.0000000000000000e+00  0.0000000000000000e+00  0.0000000000000000e+00  0.0000000000000000e+00  0.0000000000000000e+00  0.0000000000000000e+00  0.0000000000000000e+00  0.0000000000000000e+00  0.0000000000000000e+00  0.0000000000000000e+00  0.0000000000000000e+00  0.0000000000000000e+00  0.0000000000000000e+00  0.0000000000000000e+00  0.0000000000000000e+00  0.0000000000000000e+00  0.0000000000000000e+00  0.0000000000000000e+00  0.0000000000000000e+00  0.0000000000000000e+00  0.0000000000000000e+00  0.0000000000000000e+00  0.0000000000000000e+00  0.0000000000000000e+00  0.0000000000000000e+00  0.0000000000000000e+00  0.0000000000000000e+00  0.0000000000000000e+00  0.0000000000000000e+00  0.0000000000000000e+00  0.0000000000000000e+00  0.0000000000000000e+00  0.0000000000000000e+00  0.0000000000000000e+00  0.0000000000000000e+00  0.0000000000000000e+00  0.0000000000000000e+00  0.0000000000000000e+00  0.0000000000000000e+00  0.0000000000000000e+00  0.0000000000000000e+00  0.0000000000000000e+00  0.0000000000000000e+00  0.0000000000000000e+00  0.0000000000000000e+00  0.0000000000000000e+00  2.9754407858824411e-02  4.8169562142254713e-04  3.0718105153586858e-04  5.9171460617545588e-04  8.8524342375000998e-04  4.4047361128912065e-04  2.3854237938929709e-04  4.0485003278669486e-04  4.7363341364520413e-04  1.0426545010058355e-04  5.7268760553711416e-04  -9.0218633895106343e-02  3.3610128884538560e-04  4.4670824710532538e-04  -1.1670201635688980e-01  -1.3772684415820433e-01  4.7139812866046026e-04  4.3841640163044175e-04  3.7288991232916079e-04  -1.7776618445598143e-05  2.9910414171648074e-04  1.6488728541440471e-04  -1.1328463245375291e-06  -3.1650521323810346e-04  -3.3857834847269457e-04  -2.0857542864226561e-01  5.5501017126341793e-04  2.7211665878350147e-04  1.6107653771515746e-04  9.4251581575073389e-04  -2.5890075160911252e-05  -1.6178090595620409e-01  -2.4721798208463955e-01  3.7172009237741586e-04  3.3582384067900364e-04  3.8674128275597474e-04  1.3766068773764101e-04  2.7564216111746392e-04  3.0157228278565476e-04  4.3612250927572505e-04  1.6658328001707806e-04  5.0618103509731359e-04  5.8416032209038108e-04  -2.5499403306797902e-01  1.9561740806510794e-04  2.1232181148230606e-04  6.8817589945683905e-06  2.7784276652586133e-04  4.7423606631722651e-04  4.3934961933336585e-04  3.7738954710287310e-04  3.4473589082948736e-04  5.6052231580185519e-04  8.0148974794761385e-04  2.5399462906172373e-04  -2.4928708115568382e-01  -2.7701145264173203e-05  -9.5309730083963139e-05  -4.5948172315772404e-02  5.6198092456069039e-04  2.1232346447805039e-04  5.2461106766558377e-04  2.9875519540051521e-04  1.8101661939657633e-05  -4.5475232492496180e-02  -2.1194892720805464e-01  -1.3594954403761054e-03  6.3292162090212458e-04  -2.1724309947677898e-03  -2.1936506895965624e-01  -4.8071787729663480e-02  5.3209231524649792e-04  2.4742527235372162e-04  2.6621503522946186e-04  4.4836936444539937e-04  -1.2687097608704135e-02  4.0293335770559866e-04  4.8048026724461991e-04  -1.4106723477079024e-02  3.0589447768446850e-04  1.8864632864908724e-04  2.7157069732270376e-04  1.8762037107929511e-04  8.4353568562003559e-05  1.5821394200563765e-04  -1.9261193015185674e-01  2.8339663771790241e-04  -1.8047728572978609e-04  3.4107951870448523e-04  -2.9420448992175611e-03  4.4395817489154574e-04  2.1446583446906167e-04  3.8287147341542016e-04  3.0391547484214161e-04  3.8213978499307546e-04  -2.5228555493030752e-01  -2.4481868927203094e-04  1.7226307475767894e-04  4.6246715898508968e-04  2.0182580137308778e-04  4.5007210191352843e-04  1.9355360123372002e-04  -2.8206459150198375e-05  2.4409360595348896e-04  7.1864956949400450e-04  4.6419190260457211e-04  6.0127280881103087e-04  6.2027923058136894e-04  5.9606892201230361e-05  -2.6660805017479176e-05  5.3126525057304414e-04  -1.5186069453321157e-04  3.7215275724668061e-04  2.8921623994777158e-04  3.4777250797736158e-05  5.1514375319400101e-04  2.7822718538914602e-04  -7.3639032420046063e-05  -1.0389834713743731e-04  -2.1782627390185488e-01  1.9438355180843847e-04  1.8672901770071200e-04  -1.3019319258215917e-01  1.1986761374529688e-04  7.1617315718414928e-05  5.2293172383866308e-04  5.0106771956076337e-05  -3.3549159419508196e-04  2.1055965641748160e-04  3.1475725109018920e-04  4.8819596742542213e-04  1.2315641280358160e-04  3.4956319447201895e-04  6.3077993579111066e-04  2.4953816329323169e-04  2.4490106274149939e-04  1.3289960406409848e-04  -1.5107521052435802e-01  -3.3483651117788382e-03  -6.4244970710980384e-02  -1.0477530390529212e-01  -1.5209084436882300e-01  2.4997119676615229e-04  7.1941933621696736e-04  8.6773733659123919e-04  -1.7661515516479303e-05  1.5661348739118671e-04  -1.0196984230514580e-01  -2.5508281167965013e-01  9.5586579863932115e-05  1.8584560976701750e-04  4.3864217391631456e-04  -2.3367131411547114e-03  2.9868767353588707e-04  4.0589934328991032e-04  2.7021121114368524e-04  3.0310279404197722e-04  1.4244454196170631e-04  1.6664088560057840e-04  -6.6827562454009653e-06  3.7206001753470894e-07  1.7474181245900509e-05  2.5507013377212102e-04  -2.5284593995757848e-05  2.4142082044597538e-04  6.7514833203871475e-04  3.6637947876835689e-04  7.8256005465892473e-05  -5.6650661959082724e-05  1.1833929605375292e-04  8.0268671344404011e-04  -8.3157090058425934e-02  2.5217375285461731e-04  -8.7197421171055227e-04  1.5353926904925115e-04  1.1581664197121168e-03  3.0015741087417757e-04  3.6699413064309974e-04  1.9848504510986811e-04  7.8192631890892234e-04  4.1019997796141208e-04  8.6193939433364673e-04  3.2683810397688768e-04  -2.2195472347249129e-01  4.6552372913932350e-05  4.0548935897615943e-04  3.0637893907739576e-04  5.3589316048116510e-04  -1.6405801406681094e-04  9.0163461744303041e-05  -1.4963659583541901e-04  -2.5544308889710043e-01  1.8320357409564849e-04  3.4244455328538736e-04  8.1547513448949102e-04  -3.0817405076055817e-02  1.8091471583770157e-04  2.8181325816717601e-04  4.7579461762790675e-04  3.0760827448199845e-04  3.1086047284463052e-04  2.2675937261341380e-04  5.9932105033862052e-04  3.1967367960836543e-04  4.5564715833467588e-04  7.3632258383127098e-05  3.4605237303477263e-04  -1.9052610993082411e-01  3.8167470764030310e-04  3.6495767689406582e-04  3.1763294759004965e-04  -2.5411326077728630e-01  -7.0468505060979722e-02  3.0910922962326006e-05  2.0082845075731417e-05  1.3457679645752338e-04  8.6978432167037639e-04  -1.0568838396770291e-04  5.4230632964164752e-04  1.1532929479629436e-04  2.1905253560000571e-04  6.9883404904410782e-04  3.6647774175466299e-04  2.2185713509908123e-04  4.7339510219909775e-04  -3.1220215567438631e-05  1.8198183929427737e-04  7.9007917971334876e-05  2.5196198300935727e-04  2.0361816816190538e-04  1.6345576579515929e-04  6.6578645591350600e-05  -1.2729051941709957e-06  -2.1778383546206754e-04  2.7373150374276038e-04  8.1674557211708300e-04  4.1754585997234823e-04  3.4086674158264262e-04  1.4630560570185350e-04  -1.7030155104624248e-01  -6.8540552727283002e-02  1.8427737651759263e-04  3.3280049754509390e-04  9.6805986361096389e-06  3.9163033577634983e-04  6.6772081632289311e-05  -7.2097877205576106e-05  9.9002346889054507e-05  -3.0868143122463102e-03  7.0326261649743672e-04  8.0180817184799947e-04  -5.5275527906508176e-05  -1.2850027596665073e-01  -7.1665514828387941e-02  6.1133663523678302e-05  -3.2081375036791530e-04  1.8009794830733662e-04  4.2896495256515685e-04  7.9843345482851435e-05  2.6549573330321067e-04  9.0999262334499122e-05  4.2900678237203338e-04  2.2258666101353654e-04  4.8039251069957405e-04  7.8865061687001428e-04  3.4167088109944392e-04  2.0324657776777961e-04  -9.6119474977995946e-05  -2.2469701558956650e-04  4.7286435982110643e-04  1.7584171406985260e-04  -3.5878273961929604e-03  1.0567326936231985e-03  -7.5430320540471174e-05  2.4458920908869392e-04  5.2173520877133589e-04  -1.8562690098252566e-02  -4.1390551636845241e-02  -1.6872134550279384e-03  -8.6860579461732410e-03  -6.0394565595067215e-02  -2.1326746462407670e-01  -2.3333523173034171e-01  1.0071772420174040e-04  5.3808169560013244e-04  2.6931581486296839e-04  -6.4779179798993669e-02  6.0465565755348492e-05  3.3082489436307954e-04  5.7573846471840342e-04  -2.2843392600464602e-01  6.2406230440156764e-04  1.7034044769192566e-04  5.4531803876621098e-04  -2.4776176599475849e-01  1.4176930168593351e-04  4.3830802682470998e-04  -1.9150887699343172e-05  6.5898814033655314e-05  7.4522197679790223e-05  -2.5221052094781665e-01  -5.1535987554899416e-02  -4.0297744636039190e-02  -1.8836799176869692e-01  1.4170730110457560e-04  4.3369430047468917e-04  1.6402020412807652e-04  3.4151544239239428e-04  3.5745788505179963e-04  3.6136730911102592e-04  3.4812350522434331e-04  1.7189534654758751e-04  -6.3059613995746305e-02  1.5623885805934599e-04  -2.3321621919067306e-01  -2.0709682726878048e-01  3.3957701615242128e-04  6.8544412646402068e-04  1.9652760939340217e-04  1.4520191110204371e-04  3.9075089674834969e-05  1.7678148783319432e-04  2.9462351509169306e-05  -1.0798559470850665e-02  -1.5848673565407238e-04  1.7380363611511958e-04  1.0522949341609491e-04  7.0083299640694239e-04  -2.9699981064658385e-03  -1.1647235203694714e-01  -9.9316513143350459e-06  1.3586665656118742e-04  4.5558856338232440e-04  6.9210296825642512e-04  -1.6185489196474601e-02  4.5427937004578842e-04  6.4177427689335147e-04  -1.1278914170039445e-02  -2.0937606512126519e-01  5.1538619219296353e-04  1.1116155474854127e-04  5.2463385035652526e-04  1.7087225334493192e-04  3.1998123193335777e-04  3.2686682826229679e-04  9.9667358774564602e-05  1.8402257518892817e-04  4.6955505047222023e-04  1.5893126497206522e-04  3.2178153186921782e-04  4.9568833635629372e-04  2.6147962997192744e-04  2.1735484598423534e-04  2.7681041542316386e-04  -1.2536208661793405e-04  2.3424312429386806e-04  1.6329373914370667e-04  -3.1165391927823229e-02  2.8069815254094750e-04  -2.4888644857187819e-01  -2.5126008921447296e-01  3.4613871736265063e-04  7.5864340628425440e-05  5.6821346186058681e-04  5.9089310126213951e-05  -3.4589924858558177e-02  3.5860297047672873e-04  3.2493737826779970e-04  -1.3779984351176397e-01  1.7731479413946323e-04  1.6447060468956353e-05  -2.4884911066573594e-05  3.5083599164964681e-04  -3.2846635957329957e-03  1.3033277122214280e-04  1.7902407918008280e-04  2.9297296140478131e-05  -2.3260901317245178e-01  5.2505802821361353e-04  1.7522793549278279e-04  7.8023257599806994e-04  9.9824387327105554e-06  3.3185119774615336e-04  1.2347726475873288e-04  -6.7671456127894078e-05  -2.1456396656128596e-01  4.1118623068490623e-06  2.1331820782108260e-04  -1.2979004985740790e-04  5.9800917499641345e-04  2.6235884462940984e-04  1.6137792236035585e-04  4.7580492261138825e-04  7.4923726272347046e-05  2.8779365427947289e-04  5.2034660435281994e-04  -1.4483204375681616e-04  5.5605396344647953e-04  6.8988188192135972e-05  3.5430536152472989e-05  3.5606187760477347e-06  2.8773830930197656e-04  2.7263580331816434e-04  9.2890170832170900e-04  2.3407849225089020e-04  3.1747310828650344e-04  4.5231147119799837e-04  -1.1616563609905122e-04  2.8140290830701206e-04  1.2404472423835364e-04  1.3530960193375137e-04  1.1194538158407773e-04  4.1740481965007423e-04  -2.7638078717477717e-03  -2.3491153294870570e-01  -1.2642741704674779e-03  3.8968711350072748e-04  -1.2002018863708426e-01  2.6346927131853362e-04  2.6394560137196630e-04  1.3307625276996255e-04  -1.0327091359553137e-04  1.7053435405105783e-04  4.7687461136447908e-04  1.4920695384030349e-04  -7.9978866783165354e-04  4.7871870857445513e-04  -7.2252765433512565e-05  -8.7509724175073740e-05  -4.0937889733426106e-05  1.1807896500534240e-04  7.9208933117545219e-05  8.8791096499642516e-05  3.0584889397386933e-04  4.3582663525549610e-04  3.0815105838743879e-05  6.0201000044937225e-04  2.3308205200163619e-04  4.6256000549903774e-04  5.0590640896012312e-04  3.1494977994285951e-04  4.8008146672981689e-04  8.7098773582663751e-04  5.1855201589793480e-04  7.0680703493712199e-05  3.0943822866625313e-04  -5.9751132396446628e-05  -1.6833434468280872e-01  5.7743172019306046e-04  9.3987285504561083e-04  3.8900768625062748e-04  5.1387388004719785e-04  3.7787043728869499e-04  7.9325121900502310e-05  -4.3524716381358211e-05  -1.4287900303448625e-01  6.0497158816734820e-04  8.3733341004688458e-04  5.5223822449134959e-04  2.5082284838446754e-04  4.6860677414294245e-04  2.8085619177145764e-06  -2.2017936223864357e-01  -3.7850070539673951e-02  7.4658283658615915e-04  2.1100984397777605e-04  3.6418776366455165e-04  3.1338811463518346e-04  2.1643827500428812e-04  2.7910917491171249e-04  8.2149631214180872e-04  2.0187273896916347e-04  3.4488830945108602e-04  1.1020852197488919e-03  3.0969794696272742e-04  -2.2375063441676751e-01  3.4117644750341882e-04  4.1695221732405025e-04  2.5891391736251580e-04  8.3614526973225308e-04  2.7559537379078181e-04  3.7666564188006997e-04  2.1559862688153383e-04  3.9832899757565980e-05  1.9951391956417514e-04  4.4581994431152516e-04  9.1845626061029095e-05  -8.1514630781644969e-03  9.8224380711860651e-05  3.7416216599945706e-04  1.3072677852262645e-04  2.1290750947914577e-04  3.0983461638214681e-04  -2.7114056470778605e-02  -9.5180327022650259e-05  3.6891096582862754e-04  1.0750381770170361e-04  9.9036924448557342e-05  -1.5040902661093685e-04  5.4746500706261104e-04  8.6573761628559766e-05  8.9802130151789233e-06  3.8057168937618842e-04  5.7296772509595427e-04  1.9683905245915356e-04  4.5939610739018945e-04  1.7402464044530530e-04  3.0114435515697126e-04  6.2548847660046309e-04  -2.193948911