<?xml version="1.0"?>
<VTKFile type="UnstructuredGrid"  version="0.1"  >
<UnstructuredGrid>
<Piece  NumberOfPoints="20054" NumberOfCells="39478">
<Points>
<DataArray  type="Float64"  NumberOfComponents="3"  format="ascii">1 0 0  0.9997998037428526 0.02000880895389431 0  0.9991992951284931 0.04000960653046352 0  0.9981987145960756 0.05999438456007805 0  0.9967984627705549 0.07995514128721501 0  0.9949991003022806 0.09988388457430118 0  0.9928013476425149 0.1197726351017051 0  0.9902060847549715 0.139613429562597 0  0.987214350763483 0.1593983238513969 0  0.9838273435359444 0.1791193962445356 0  0.9800464192046954 0.198768750572253 0  0.9758730916235354 0.2183385193801655 0  0.9713090317615876 0.237820867079336 0  0.9663560670342555 0.2572079930835849 0  0.9610161805715396 0.2764921349327862 0  0.9552915104240066 0.2956655714008991 0  0.9491843487067304 0.3147206255874884 0  0.9426971406815462 0.3336496679914983 0  0.9358324837779861 0.3524451195660473 0  0.9285931265532873 0.3710994547530225 0  0.9209819675918909 0.3896052044962556 0  0.9130020543448703 0.4079549592320781 0  0.9046565819097542 0.4261413718560547 0  0.8959488917512338 0.4441571606647087 0  0.8868824703632656 0.4619951122710622 0  0.8774609478731046 0.4796480844928215 0  0.8676880965878291 0.4971090092120542 0  0.8575678294839372 0.5143708952052096 0  0.8471041986406199 0.5314268309423539 0  0.8363013936173391 0.5482699873544935 0  0.8251637397763597 0.5648936205678837 0  0.8136956965509062 0.5812910746042258 0  0.8019018556596399 0.5974557840456699 0  0.7897869392681683 0.6133812766635599 0  0.777355798098326 0.6290611760098652 0  0.7646134094859813 0.6444892039702628 0  0.7515648753881492 0.6596591832778468 0  0.7382154203402046 0.6745650399864606 0  0.7245703893640189 0.6892008059026586 0  0.7106352458278521 0.7035606209753273 0  0.6964155692588616 0.7176387356420051 0  0.6819170531091018 0.7314295131309636 0  0.6671455024759069 0.7449274317181303 0  0.6521068317775753 0.7581270869379442 0  0.6368070623852795 0.7710231937472638 0  0.6212523202121545 0.7836105886414595 0  0.6054488332605282 0.795884231721841 0  0.5894029291282759 0.8078392087135958 0  0.5731210324752972 0.8194707329334278 0  0.5566096624511305 0.8307741472061095 0  0.5398754300847343 0.8417449257291802 0  0.5229250356374803 0.8523786758850435 0  0.5057652659204196 0.8626711399997378 0  0.4884029915768944 0.8726181970476778 0  0.4708451643315825 0.8822158643016828 0  0.45309881420708 0.8914602989276292 0  0.4351710467091336 0.9003477995230937 0  0.4170690399816468 0.9088748075993677 0  0.398800041932607 0.9170379090062476 0  0.3803713673320772 0.9248338352990368 0  0.3617903948834157 0.9322594650472057 0  0.3430645642688987 0.9393118250841893 0  0.3242013731709288 0.9459880916978206 0  0.3052083742700172 0.952285591760924 0  0.2860931722207478 0.9582018038016155 0  0.2668634206069304 0.963734359012881 0  0.2475268188771628 0.9688810422010291 0  0.2280911092620296 0.9736397926726377 0  0.2085640736741707 0.9780087050596407 0  0.1889535305924618 0.9819860300822225 0  0.1692673319315541 0.9855701752492174 0  0.1495133598980264 0.9887597054957302 0  0.1296995238344084 0.9915533437577263 0  0.1098337570523395 0.9939499714833577 0  0.08992401365612977 0.9959486290808237 0  0.06997826535799723 0.9975485163025836 0  0.05000449828625179 0.9987489925657699 0  0.03001070978771124 0.9995495772086734 0  0.01000490522562346 0.9999499496831961 0  -0.01000490522562333 0.9999499496831961 0  -0.03001070978771133 0.9995495772086734 0  -0.05000449828625144 0.9987489925657699 0  -0.06997826535799688 0.9975485163025836 0  -0.08992401365612987 0.9959486290808237 0  -0.1098337570523394 0.9939499714833577 0  -0.1296995238344082 0.9915533437577263 0  -0.1495133598980262 0.9887597054957303 0  -0.1692673319315537 0.9855701752492174 0  -0.1889535305924614 0.9819860300822226 0  -0.2085640736741705 0.9780087050596407 0  -0.2280911092620295 0.9736397926726377 0  -0.2475268188771627 0.9688810422010291 0  -0.2668634206069302 0.9637343590128811 0  -0.2860931722207475 0.9582018038016156 0  -0.3052083742700173 0.9522855917609239 0  -0.3242013731709289 0.9459880916978205 0  -0.3430645642688986 0.9393118250841894 0  -0.3617903948834154 0.9322594650472058 0  -0.380371367332077 0.924833835299037 0  -0.3988000419326071 0.9170379090062476 0  -0.4170690399816465 0.9088748075993678 0  -0.4351710467091335 0.9003477995230939 0  -0.4530988142070799 0.8914602989276292 0  -0.4708451643315824 0.8822158643016829 0  -0.4884029915768945 0.8726181970476778 0  -0.5057652659204197 0.8626711399997378 0  -0.5229250356374801 0.8523786758850437 0  -0.5398754300847342 0.8417449257291804 0  -0.5566096624511303 0.8307741472061098 0  -0.5731210324752971 0.8194707329334279 0  -0.589402929128276 0.8078392087135957 0  -0.6054488332605281 0.7958842317218411 0  -0.6212523202121542 0.7836105886414597 0  -0.6368070623852793 0.7710231937472639 0  -0.652106831777575 0.7581270869379444 0  -0.6671455024759069 0.7449274317181304 0  -0.6819170531091018 0.7314295131309636 0  -0.6964155692588616 0.7176387356420052 0  -0.7106352458278521 0.7035606209753273 0  -0.7245703893640187 0.6892008059026588 0  -0.7382154203402043 0.6745650399864608 0  -0.751564875388149 0.6596591832778469 0  -0.7646134094859813 0.6444892039702628 0  -0.7773557980983258 0.6290611760098654 0  -0.7897869392681683 0.6133812766635599 0  -0.8019018556596398 0.59745578404567 0  -0.8136956965509062 0.5812910746042258 0  -0.8251637397763595 0.5648936205678839 0  -0.836301393617339 0.5482699873544935 0  -0.8471041986406197 0.5314268309423542 0  -0.8575678294839372 0.5143708952052097 0  -0.8676880965878292 0.497109009212054 0  -0.8774609478731045 0.4796480844928216 0  -0.8868824703632656 0.4619951122710621 0  -0.8959488917512338 0.4441571606647088 0  -0.904656581909754 0.426141371856055 0  -0.9130020543448703 0.4079549592320783 0  -0.920981967591891 0.3896052044962555 0  -0.9285931265532872 0.3710994547530226 0  -0.9358324837779861 0.3524451195660473 0  -0.9426971406815462 0.3336496679914984 0  -0.9491843487067303 0.3147206255874888 0  -0.9552915104240065 0.2956655714008993 0  -0.9610161805715396 0.2764921349327862 0  -0.9663560670342555 0.2572079930835851 0  -0.9713090317615876 0.2378208670793361 0  -0.9758730916235353 0.2183385193801658 0  -0.9800464192046954 0.198768750572253 0  -0.9838273435359444 0.1791193962445354 0  -0.987214350763483 0.159398323851397 0  -0.9902060847549714 0.1396134295625972 0  -0.9928013476425149 0.1197726351017052 0  -0.9949991003022804 0.09988388457430147 0  -0.9967984627705549 0.07995514128721509 0  -0.9981987145960756 0.05999438456007793 0  -0.9991992951284931 0.04000960653046362 0  -0.9997998037428526 0.02000880895389464 0  -1 1.224646799147353e-16 0  -0.9997998037428526 -0.0200088089538944 0  -0.9991992951284931 -0.04000960653046338 0  -0.9981987145960756 -0.05999438456007812 0  -0.9967984627705549 -0.07995514128721484 0  -0.9949991003022806 -0.09988388457430078 0  -0.9928013476425149 -0.1197726351017049 0  -0.9902060847549715 -0.1396134295625965 0  -0.9872143507634831 -0.1593983238513963 0  -0.9838273435359444 -0.1791193962445356 0  -0.9800464192046953 -0.1987687505722532 0  -0.9758730916235354 -0.2183385193801655 0  -0.9713090317615876 -0.2378208670793363 0  -0.9663560670342556 -0.2572079930835848 0  -0.9610161805715396 -0.276492134932786 0  -0.9552915104240066 -0.2956655714008991 0  -0.9491843487067305 -0.3147206255874881 0  -0.9426971406815464 -0.3336496679914978 0  -0.9358324837779862 -0.3524451195660471 0  -0.9285931265532875 -0.371099454753022 0  -0.9209819675918909 -0.3896052044962557 0  -0.9130020543448704 -0.407954959232078 0  -0.9046565819097541 -0.4261413718560548 0  -0.8959488917512338 -0.4441571606647086 0  -0.8868824703632655 -0.4619951122710623 0  -0.8774609478731046 -0.4796480844928214 0  -0.8676880965878293 -0.4971090092120538 0  -0.8575678294839373 -0.5143708952052095 0  -0.84710419864062 -0.5314268309423537 0  -0.8363013936173395 -0.5482699873544929 0  -0.8251637397763596 -0.5648936205678838 0  -0.8136956965509061 -0.5812910746042259 0  -0.8019018556596399 -0.5974557840456699 0  -0.7897869392681682 -0.61338127666356 0  -0.777355798098326 -0.6290611760098652 0  -0.7646134094859816 -0.6444892039702625 0  -0.7515648753881492 -0.6596591832778468 0  -0.7382154203402048 -0.6745650399864603 0  -0.7245703893640192 -0.6892008059026583 0  -0.7106352458278522 -0.7035606209753272 0  -0.6964155692588621 -0.7176387356420046 0  -0.6819170531091017 -0.7314295131309637 0  -0.667145502475907 -0.7449274317181303 0  -0.6521068317775756 -0.758127086937944 0  -0.6368070623852792 -0.7710231937472641 0  -0.6212523202121544 -0.7836105886414596 0  -0.6054488332605283 -0.795884231721841 0  -0.5894029291282762 -0.8078392087135956 0  -0.5731210324752977 -0.8194707329334274 0  -0.5566096624511304 -0.8307741472061095 0  -0.5398754300847344 -0.8417449257291802 0  -0.5229250356374798 -0.8523786758850437 0  -0.5057652659204195 -0.8626711399997379 0  -0.4884029915768943 -0.872618197047678 0  -0.4708451643315825 -0.8822158643016828 0  -0.4530988142070805 -0.8914602989276289 0  -0.4351710467091333 -0.900347799523094 0  -0.4170690399816467 -0.9088748075993677 0  -0.3988000419326073 -0.9170379090062475 0  -0.3803713673320777 -0.9248338352990366 0  -0.3617903948834162 -0.9322594650472055 0  -0.3430645642688988 -0.9393118250841893 0  -0.3242013731709283 -0.9459880916978207 0  -0.3052083742700169 -0.9522855917609241 0  -0.2860931722207477 -0.9582018038016155 0  -0.2668634206069305 -0.963734359012881 0  -0.2475268188771631 -0.968881042201029 0  -0.2280911092620301 -0.9736397926726376 0  -0.2085640736741706 -0.9780087050596407 0  -0.1889535305924619 -0.9819860300822225 0  -0.1692673319315544 -0.9855701752492173 0  -0.1495133598980269 -0.9887597054957302 0  -0.1296995238344092 -0.9915533437577262 0  -0.1098337570523396 -0.9939499714833577 0  -0.08992401365612945 -0.9959486290808237 0  -0.06997826535799691 -0.9975485163025836 0  -0.05000449828625168 -0.9987489925657699 0  -0.030010709787
[...]
<PointData  Scalars="Displacement"> 
<DataArray  type="Float64"  Name="Displacement"  format="ascii">0.0000000000000000e+00  0.0000000000000000e+00  0.0000000000000000e+00  0.0000000000000000e+00  0.0000000000000000e+00  0.0000000000000000e+00  0.0000000000000000e+00  0.0000000000000000e+00  0.0000000000000000e+00  0.0000000000000000e+00  0.0000000000000000e+00  0.0000000000000000e+00  0.0000000000000000e+00  0.0000000000000000e+00  0.0000000000000000e+00  0.0000000000000000e+00  0.0000000000000000e+00  0.0000000000000000e+00  0.0000000000000000e+00  0.0000000000000000e+00  0.0000000000000000e+00  0.0000000000000000e+00  0.0000000000000000e+00  0.0000000000000000e+00  0.0000000000000000e+00  0.0000000000000000e+00  0.0000000000000000e+00  0.0000000000000000e+00  0.0000000000000000e+00  0.0000000000000000e+00  0.0000000000000000e+00  0.0000000000000000e+00  0.0000000000000000e+00  0.0000000000000000e+00  0.0000000000000000e+00  0.0000000000000000e+00  0.0000000000000000e+00  0.0000000000000000e+00  0.0000000000000000e+00  0.0000000000000000e+00  0.0000000000000000e+00  0.0000000000000000e+00  0.0000000000000000e+00  0.0000000000000000e+00  0.0000000000000000e+00  0.0000000000000000e+00  0.0000000000000000e+00  0.0000000000000000e+00  0.0000000000000000e+00  0.0000000000000000e+00  0.0000000000000000e+00  0.0000000000000000e+00  0.0000000000000000e+00  0.0000000000000000e+00  0.0000000000000000e+00  0.0000000000000000e+00  0.0000000000000000e+00  0.0000000000000000e+00  0.0000000000000000e+00  0.0000000000000000e+00  0.0000000000000000e+00  0.0000000000000000e+00  0.0000000000000000e+00  0.0000000000000000e+00  0.0000000000000000e+00  0.0000000000000000e+00  0.0000000000000000e+00  0.0000000000000000e+00  0.0000000000000000e+00  0.0000000000000000e+00  0.0000000000000000e+00  0.0000000000000000e+00  0.0000000000000000e+00  0.0000000000000000e+00  0.0000000000000000e+00  0.0000000000000000e+00  0.0000000000000000e+00  0.0000000000000000e+00  0.0000000000000000e+00  0.0000000000000000e+00  0.0000000000000000e+00  0.0000000000000000e+00  0.0000000000000000e+00  0.0000000000000000e+00  0.0000000000000000e+00  0.0000000000000000e+00  0.0000000000000000e+00  0.0000000000000000e+00  0.0000000000000000e+00  0.0000000000000000e+00  0.0000000000000000e+00  0.0000000000000000e+00  0.0000000000000000e+00  0.0000000000000000e+00  0.0000000000000000e+00  0.0000000000000000e+00  0.0000000000000000e+00  0.0000000000000000e+00  0.0000000000000000e+00  0.0000000000000000e+00  0.0000000000000000e+00  0.0000000000000000e+00  0.0000000000000000e+00  0.0000000000000000e+00  0.0000000000000000e+00  0.0000000000000000e+00  0.0000000000000000e+00  0.0000000000000000e+00  0.0000000000000000e+00  0.0000000000000000e+00  0.0000000000000000e+00  0.0000000000000000e+00  0.0000000000000000e+00  0.0000000000000000e+00  0.0000000000000000e+00  0.0000000000000000e+00  0.0000000000000000e+00  0.0000000000000000e+00  0.0000000000000000e+00  0.0000000000000000e+00  0.0000000000000000e+00  0.0000000000000000e+00  0.0000000000000000e+00  0.0000000000000000e+00  0.0000000000000000e+00  0.0000000000000000e+00  0.0000000000000000e+00  0.0000000000000000e+00  0.0000000000000000e+00  0.0000000000000000e+00  0.0000000000000000e+00  0.0000000000000000e+00  0.0000000000000000e+00  0.0000000000000000e+00  0.0000000000000000e+00  0.0000000000000000e+00  0.0000000000000000e+00  0.0000000000000000e+00  0.0000000000000000e+00  0.0000000000000000e+00  0.0000000000000000e+00  0.0000000000000000e+00  0.0000000000000000e+00  0.0000000000000000e+00  0.0000000000000000e+00  0.0000000000000000e+00  0.0000000000000000e+00  0.0000000000000000e+00  0.0000000000000000e+00  0.0000000000000000e+00  0.0000000000000000e+00  0.0000000000000000e+00  0.0000000000000000e+00  0.0000000000000000e+00  0.0000000000000000e+00  0.0000000000000000e+00  0.0000000000000000e+00  0.0000000000000000e+00  0.0000000000000000e+00  0.0000000000000000e+00  0.0000000000000000e+00  0.0000000000000000e+00  0.0000000000000000e+00  0.0000000000000000e+00  0.0000000000000000e+00  0.0000000000000000e+00  0.0000000000000000e+00  0.0000000000000000e+00  0.0000000000000000e+00  0.0000000000000000e+00  0.0000000000000000e+00  0.0000000000000000e+00  0.0000000000000000e+00  0.0000000000000000e+00  0.0000000000000000e+00  0.0000000000000000e+00  0.0000000000000000e+00  0.0000000000000000e+00  0.0000000000000000e+00  0.0000000000000000e+00  0.0000000000000000e+00  0.0000000000000000e+00  0.0000000000000000e+00  0.0000000000000000e+00  0.0000000000000000e+00  0.0000000000000000e+00  0.0000000000000000e+00  0.0000000000000000e+00  0.0000000000000000e+00  0.0000000000000000e+00  0.0000000000000000e+00  0.0000000000000000e+00  0.0000000000000000e+00  0.0000000000000000e+00  0.0000000000000000e+00  0.0000000000000000e+00  0.0000000000000000e+00  0.0000000000000000e+00  0.0000000000000000e+00  0.0000000000000000e+00  0.0000000000000000e+00  0.0000000000000000e+00  0.0000000000000000e+00  0.0000000000000000e+00  0.0000000000000000e+00  0.0000000000000000e+00  0.0000000000000000e+00  0.0000000000000000e+00  0.0000000000000000e+00  0.0000000000000000e+00  0.0000000000000000e+00  0.0000000000000000e+00  0.0000000000000000e+00  0.0000000000000000e+00  0.0000000000000000e+00  0.0000000000000000e+00  0.0000000000000000e+00  0.0000000000000000e+00  0.0000000000000000e+00  0.0000000000000000e+00  0.0000000000000000e+00  0.0000000000000000e+00  0.0000000000000000e+00  0.0000000000000000e+00  0.0000000000000000e+00  0.0000000000000000e+00  0.0000000000000000e+00  0.0000000000000000e+00  0.0000000000000000e+00  0.0000000000000000e+00  0.0000000000000000e+00  0.0000000000000000e+00  0.0000000000000000e+00  0.0000000000000000e+00  0.0000000000000000e+00  0.0000000000000000e+00  0.0000000000000000e+00  0.0000000000000000e+00  0.0000000000000000e+00  0.0000000000000000e+00  0.0000000000000000e+00  0.0000000000000000e+00  0.0000000000000000e+00  0.0000000000000000e+00  0.0000000000000000e+00  0.0000000000000000e+00  0.0000000000000000e+00  0.0000000000000000e+00  0.0000000000000000e+00  0.0000000000000000e+00  0.0000000000000000e+00  0.0000000000000000e+00  0.0000000000000000e+00  0.0000000000000000e+00  0.0000000000000000e+00  0.0000000000000000e+00  0.0000000000000000e+00  0.0000000000000000e+00  0.0000000000000000e+00  0.0000000000000000e+00  0.0000000000000000e+00  0.0000000000000000e+00  0.0000000000000000e+00  0.0000000000000000e+00  0.0000000000000000e+00  0.0000000000000000e+00  0.0000000000000000e+00  0.0000000000000000e+00  0.0000000000000000e+00  0.0000000000000000e+00  0.0000000000000000e+00  0.0000000000000000e+00  0.0000000000000000e+00  0.0000000000000000e+00  0.0000000000000000e+00  0.0000000000000000e+00  0.0000000000000000e+00  0.0000000000000000e+00  0.0000000000000000e+00  0.0000000000000000e+00  0.0000000000000000e+00  0.0000000000000000e+00  0.0000000000000000e+00  0.0000000000000000e+00  0.0000000000000000e+00  0.0000000000000000e+00  0.0000000000000000e+00  0.0000000000000000e+00  0.0000000000000000e+00  0.0000000000000000e+00  0.0000000000000000e+00  0.0000000000000000e+00  0.0000000000000000e+00  0.0000000000000000e+00  0.0000000000000000e+00  0.0000000000000000e+00  0.0000000000000000e+00  0.0000000000000000e+00  0.0000000000000000e+00  0.0000000000000000e+00  0.0000000000000000e+00  0.0000000000000000e+00  0.0000000000000000e+00  0.0000000000000000e+00  0.0000000000000000e+00  0.0000000000000000e+00  0.0000000000000000e+00  0.0000000000000000e+00  0.0000000000000000e+00  0.0000000000000000e+00  0.0000000000000000e+00  0.0000000000000000e+00  0.0000000000000000e+00  0.0000000000000000e+00  8.4489521527152187e+225  -4.0902049557586105e+221  -2.3802675922146790e+222  1.3398677688227898e+226  2.7564315396995724e+221  2.5269954358829993e+225  -8.5347308099869369e+220  -3.0344822718628225e+217  -3.7718445989356700e+220  1.2593149926053977e+217  -7.4863089111816668e+219  4.1514918144409606e+227  1.4440416233124411e+221  8.8203984411718072e+216  -2.3409918831176981e+223  5.8368148655233826e+226  -3.0231122251179798e+218  -5.6865794807589578e+218  1.4068632726433201e+216  -2.7943894949212278e+219  -5.4677015844362699e+214  1.0154928202603712e+216  -9.7068357634029330e+215  2.3095458794499412e+223  -1.3363208372669034e+228  2.7276640294202279e+224  -5.5375011449770298e+217  1.4534244370987209e+217  -6.7630668097797109e+218  -3.5305120424825476e+223  8.8272614215106201e+214  9.1602005445098044e+227  9.8097743773973180e+227  2.9291511881561401e+228  5.9439499224511096e+215  7.5270951813175614e+213  8.4311727156041242e+213  3.7232312235236980e+215  9.1938418424836031e+216  3.8083057610317409e+222  -9.4674473243783631e+222  1.4774514511199720e+219  -2.1259582884255885e+222  -4.3451108181379902e+227  1.4274774250232073e+213  1.4837267880186149e+214  -5.7836336339523481e+214  -6.0387295747663543e+212  -1.8017590667065803e+220  -4.7883102965398531e+220  -1.0134914952735103e+222  -7.0604920988318213e+218  4.5691743781870099e+222  -2.6801256098773086e+225  -1.8684882226392807e+219  -2.2926691963189204e+224  2.3447719802725728e+214  3.3822900844405653e+216  -7.9681976104755891e+225  1.3595278623730020e+218  2.0456996866439072e+216  5.7077869210132782e+217  1.5980560086741327e+212  -4.2795164593759381e+212  -9.1730394760722692e+224  -2.2833787948379484e+222  -6.1933488258279855e+226  -1.3259689922739801e+223  1.2406003535297189e+227  -1.0721885708579154e+224  4.2628660710570856e+226  3.1779076453610769e+220  2.7537977788599262e+223  -8.1888521234342611e+219  -8.5457675634132962e+221  -3.8967798059302953e+222  7.7154322961826678e+214  4.3370383547049322e+225  9.8542744672794638e+225  8.0719643750373414e+216  -5.5379473311465845e+215  6.2458968418739126e+221  3.1632292318101814e+215  2.2643541462214775e+211  1.5172751962560682e+213  1.1323312509092333e+228  -6.0546075096832013e+214  2.7558078796552093e+214  -2.3456242121789532e+213  2.8463238305744989e+224  7.3377822261427813e+217  -2.4787835917947142e+213  1.2124816298601670e+221  4.2125904468334913e+212  1.7029382670720656e+218  -2.4539686428236457e+228  -1.5188599399521789e+214  5.2512079887313574e+212  -7.8202978885039822e+217  3.3396493860842894e+215  -1.0967990892113752e+219  4.1260444166133121e+219  1.2197976926977190e+214  -2.6256555881490225e+223  1.1043848816720900e+221  -3.9088150384884457e+221  1.2339328348758071e+225  9.3465416067687528e+218  -1.5837515147392062e+219  -4.3086193244289710e+214  5.4744912194658634e+224  3.7996350512614315e+219  -2.1067794477501026e+212  -1.4195486664110866e+222  -2.0525771059006185e+223  5.8667527097149348e+214  -2.2033445532834978e+214  3.1574730923525450e+213  -6.9935743505800420e+211  -1.9250387236048289e+225  -6.1590558314263288e+223  1.9386533767149004e+217  -6.7025712910264539e+227  -2.2733852533100112e+216  -1.5719234095456882e+220  -6.9224191130535191e+219  7.9436224557197288e+212  -1.1967981294534463e+214  -7.0584681520336186e+217  2.0625244815762779e+220  -1.7484732606290385e+218  -2.3480095372701655e+217  -1.9256820744301566e+219  -9.0346175490871521e+223  1.5851357353967992e+218  1.5926957337785406e+216  1.0890731078410596e+214  6.5274041276278094e+231  2.2591347053738710e+225  2.4906939785988615e+224  4.7288839637641280e+225  -2.9278327692560612e+230  -1.9194777831186162e+216  5.4091411598030027e+228  3.0323069673307156e+220  -1.1937401033146061e+216  -8.5863441824594370e+214  -2.1922701324728707e+223  4.1349026951663735e+225  -1.4166480006250822e+218  -9.8794715101679690e+211  9.5304307831342206e+223  -1.0202930278540872e+229  1.4265436956848235e+213  2.8746495461821214e+216  2.5348639652096795e+212  7.9070922697228771e+210  -1.6133615981658514e+215  7.2049256662063015e+213  -1.4144336660162074e+212  -1.7457205566143991e+212  -2.1722683696465626e+216  4.2174532693806010e+221  -2.0202061578435280e+214  -5.3483873053957461e+217  -8.9688383086165798e+223  -2.7282628431566126e+219  8.5131906260599535e+211  -2.8985578804742504e+211  -1.1478580211551544e+216  -4.1509067602834946e+221  -3.8510932424287451e+224  5.8278564950585033e+215  1.0513248653320808e+226  3.7884756568582639e+212  -5.4490085538115320e+220  6.3810921432428016e+212  3.1681974290645018e+216  -2.1548034271940018e+211  -8.4070569333818054e+220  7.4498892383648996e+215  9.3084990099629079e+222  2.9540302686928340e+219  1.6017525389162341e+227  6.0261840875331238e+211  8.5075007703565729e+220  -6.3599289915658127e+219  -6.9553075218723500e+223  7.9140648740750077e+211  -2.3000751847558614e+214  8.0261266855227769e+214  3.0706036646650638e+228  2.8534863191941420e+211  1.4756622843989753e+216  2.6461610040108339e+226  -6.0473033519543560e+227  1.3404342877894951e+216  2.0878937025017119e+217  -2.0049217985286523e+224  -2.4147477815386516e+220  5.7065867584655034e+221  3.4561981200359153e+220  5.6309393566760238e+222  1.6930213561812608e+218  8.9112356779976852e+219  9.0309106998532950e+215  3.6681844467039700e+214  1.2687068217651953e+225  2.8744087021686269e+215  2.9131694603032771e+215  1.5025066453263960e+215  1.4243615042439729e+224  2.3812992014587616e+223  2.7615530515132276e+217  -3.2550792508327235e+210  -1.0191821582736635e+219  -1.4296300291267373e+226  -9.1697507922989590e+215  -8.3452138616621992e+217  -4.2653774117356805e+217  7.1566895646648733e+213  -1.3590513388312600e+221  3.3044555094582495e+224  5.9226734896151867e+219  -2.0136996576434342e+219  3.2854140956693188e+213  6.7784766349292617e+215  -4.6109365406525909e+211  2.0308015416072296e+216  -1.6485501660424186e+210  -2.7851919512148008e+213  6.1222496995688570e+213  -6.0880916476318797e+213  -2.1169366499246058e+216  -3.1772200790715458e+214  -2.2294784664160334e+221  -3.8929305572532576e+218  -4.0476611911594424e+218  3.8269763583985228e+214  6.8717558443579836e+225  4.4102207973733927e+224  -1.1848207568869664e+220  -1.8727091180648087e+221  7.5993851120446771e+213  -2.8498215311702680e+224  -3.6208221128686459e+219  -2.9929368915261341e+213  -4.9760978438338478e+210  -6.2030165559758031e+225  6.4521501320059899e+222  1.5089480227059762e+222  -8.4666057792657400e+220  -4.1901976121552849e+228  5.4971984203996492e+225  -1.8121346133568200e+214  -8.2094283610792950e+224  4.0044131244459473e+219  -2.4754993925725488e+221  -5.6537115767023205e+211  -6.5620148764327590e+213  -6.2383347184079988e+211  3.9326384364136424e+218  -7.2911234992948139e+216  3.4331742959348117e+224  2.8120549449812080e+224  8.7077088446689507e+226  -1.4097113117318023e+215  -7.1306121712371018e+212  -2.3220380604192579e+211  -2.1034067702652732e+219  -2.1248621170682298e+211  -5.8394429974861800e+225  3.5693921348949975e+223  2.1100487193281076e+217  4.9553282179405251e+213  1.6163583667501453e+216  4.4707349134416296e+229  1.1006833034732114e+225  3.4975213341278321e+223  3.7972557361396097e+223  -2.9559678168335250e+222  1.5451668973228725e+226  -2.3014713317649579e+223  5.8579628711986664e+222  -4.1591454438586368e+219  9.4974890361362725e+216  2.2924358894681234e+228  1.4719580592233878e+213  1.6608041830827415e+216  -2.2438874401815985e+225  2.0780225830537558e+226  3.0539376328906008e+225  9.3089056519799426e+218  -6.1252385550245365e+217  -3.1549205054655203e+229  1.3021819868492348e+211  3.5765711083732528e+226  -7.7446935907230051e+212  9.8722227680409411e+210  -4.8664733565684818e+211  -1.3434303437378121e+224  4.8811858748224768e+223  -4.5518239875597540e+227  -1.1192320146609612e+228  1.0157392628841323e+222  4.9358421867306433e+216  -2.9318036692511874e+218  -2.3362062246489234e+222  -8.5834720094118414e+222  2.4909137140493527e+218  6.3469131300674355e+222  -4.8615147902156843e+219  -1.2676290241876254e+225  -4.6494881801267497e+214  -3.9884182536991319e+223  -2.0341866701501015e+224  -1.6455100194867016e+223  5.0587027972344030e+215  -6.2129267979256970e+215  3.8857175411404375e+213  6.5774278870498837e+213  1.0956532992816598e+215  -1.5241871923794628e+214  1.4658071742011548e+227  1.1860655269850214e+212  -7.7431741566953245e+211  -3.0972360026656381e+213  5.8703857808579301e+223  1.6238780302687956e+221  2.3994573440048368e+222  7.0923035831809323e+212  4.6702557759411738e+215  5.1645551963680597e+219  -8.4933350564145149e+222  -3.4358380580406402e+223  -1.2410644132599681e+218  -1.0856686788660083e+224  -6.8349537741229629e+223  1.9348986738391671e+229  -1.5159790395630911e+217  4.8384249273402113e+216  -1.5002766086335084e+223  -3.0510168183071719e+215  2.8259536592018789e+213  8.3297884770576174e+220  -1.1823966894870807e+212  1.9560073866178880e+216  -9.3244624323698271e+218  1.8181034144628511e+211  -1.3394296567946224e+217  -4.9634207851953966e+218  2.5068020477265563e+211  -5.2830625638408160e+214  -2.1410193486836007e+212  -4.7791713838346324e+212  -2.1330865633443109e+217  -2.4290031612676885e+220  1.3038826602750400e+227  -9.4513871678556058e+213  -6.7755470694938403e+224  -1.0898736003449766e+228  -2.3084992898749319e+216  -1.8806089631415239e+211  -3.3334439847036101e+220  8.3457234626190810e+215  -5.1798452042837994e+228  -1.0959988515453083e+215  2.8107413102072547e+216  5.3196286818677014e+224  -5.8050072122116971e+213  6.2027649603219797e+209  4.0273297299710292e+212  1.2605169120629218e+217  -3.2622572335367601e+223  -2.0066708103659892e+222  -2.4213619775321750e+218  -2.0112329035264266e+217  -7.7370507935027236e+226  5.8041531337086213e+218  -4.7000858265075404e+211  -3.3529840931051757e+221  -4.2162276273626293e+212  -5.6884080360397484e+213  -7.3636912133435780e+221  8.0859862652277506e+212  -3.0847189560475406e+230  -1.1005463377496620e+211  -1.1258034913283882e+215  4.9760993561211606e+211  8.3838074793327135e+222  -9.4651153043374276e+219  -1.0991163940493886e+218  -1.3048109585907680e+221  -5.8014993247457145e+210  2.6542898161698855e+214  -2.1116325225593404e+224  -3.3371112608538072e+217  2.2658195456574472e+221  1.1238126607557146e+217  1.0236234810344161e+211  7.5711126209488109e+211  -5.0278230470568628e+223  1.6501293633575521e+212  -1.4755560088591681e+223  -3.0000940365951008e+216  2.0945183726265923e+226  -9.2212302415785750e+217  -1.0067149499305235e+213  -1.4227399127099805e+215  -1.2262528712404698e+214  -3.8135822722688136e+214  9.2908699131700664e+214  5.4617466665103322e+224  4.0531005512156586e+227  1.1768924743602734e+229  6.7387181484827739e+224  -2.9365867082189596e+214  3.4651670773856654e+227  2.1786534248219356e+223  -7.4012161723869371e+215  1.3202385341492166e+211  -1.5240403469475733e+211  3.1539592206575480e+219  -6.0981432762107704e+218  -1.0550655245834289e+218  1.0447987756314479e+226  -1.2896461965924687e+217  -1.4116366370026823e+212  -2.5329595207168523e+210  1.2974361191044836e+213  -2.4418345682447273e+220  3.3485297488763279e+214  1.2746680030826190e+219  -4.9078458241597070e+213  -2.5036277760275976e+213  6.7186894976067957e+213  -5.3160916453696755e+220  3.1052944668155172e+214  -5.7490840907323744e+221  2.5119240654203436e+222  -1.0006727755427574e+223  -1.2997077140277352e+219  -5.8534834441996789e+220  1.7852352227463687e+223  2.2870737739432055e+213  1.8423319940699782e+227  7.4676566544113317e+214  1.0260823556870682e+228  -4.8560691344265330e+218  -5.5568950035131273e+224  1.5492394206085995e+223  8.9537229231472422e+230  -1.5823782814306051e+215  -1.2861134391396447e+212  -8.2901455645392476e+217  4.3939156716096829e+225  4.5162269267235306e+216  7.5113927476210541e+221  3.6977897138624272e+223  -9.0935704147818194e+212  -9.2226891334355081e+218  -2.8494242884581335e+212  4.8124128174767332e+229  5.3342600862230425e+229  6.5252684994069785e+227  -2.6117169612864260e+217  -8.3123968776037072e+214  -1.5792487497307791e+215  -1.5914978559235546e+217  9.2392075575257997e+220  -7.7274015919424047e+222  7.4491760226550761e+214  -7.0794976058946636e+222  3.8452766281795103e+219  -7.9196031308801691e+216  3.3071782088888309e+227  -3.1008175903150770e+218  6.8097917383079687e+222  9.3995543537957247e+218  1.3791774241681543e+221  -1.8641506115513956e+217  3.1098129935347166e+216  1.6442932654427001e+212  1.8123813475421551e+218  1.2866242597116163