<?xml version="1.0"?>
<VTKFile type="UnstructuredGrid"  version="0.1"  >
<UnstructuredGrid>
<Piece  NumberOfPoints="20054" NumberOfCells="39478">
<Points>
<DataArray  type="Float64"  NumberOfComponents="3"  format="ascii">1 0 0  0.9997998037428526 0.02000880895389431 0  0.9991992951284931 0.04000960653046352 0  0.9981987145960756 0.05999438456007805 0  0.9967984627705549 0.07995514128721501 0  0.9949991003022806 0.09988388457430118 0  0.9928013476425149 0.1197726351017051 0  0.9902060847549715 0.139613429562597 0  0.987214350763483 0.1593983238513969 0  0.9838273435359444 0.1791193962445356 0  0.9800464192046954 0.198768750572253 0  0.9758730916235354 0.2183385193801655 0  0.9713090317615876 0.237820867079336 0  0.9663560670342555 0.2572079930835849 0  0.9610161805715396 0.2764921349327862 0  0.9552915104240066 0.2956655714008991 0  0.9491843487067304 0.3147206255874884 0  0.9426971406815462 0.3336496679914983 0  0.9358324837779861 0.3524451195660473 0  0.9285931265532873 0.3710994547530225 0  0.9209819675918909 0.3896052044962556 0  0.9130020543448703 0.4079549592320781 0  0.9046565819097542 0.4261413718560547 0  0.8959488917512338 0.4441571606647087 0  0.8868824703632656 0.4619951122710622 0  0.8774609478731046 0.4796480844928215 0  0.8676880965878291 0.4971090092120542 0  0.8575678294839372 0.5143708952052096 0  0.8471041986406199 0.5314268309423539 0  0.8363013936173391 0.5482699873544935 0  0.8251637397763597 0.5648936205678837 0  0.8136956965509062 0.5812910746042258 0  0.8019018556596399 0.5974557840456699 0  0.7897869392681683 0.6133812766635599 0  0.777355798098326 0.6290611760098652 0  0.7646134094859813 0.6444892039702628 0  0.7515648753881492 0.6596591832778468 0  0.7382154203402046 0.6745650399864606 0  0.7245703893640189 0.6892008059026586 0  0.7106352458278521 0.7035606209753273 0  0.6964155692588616 0.7176387356420051 0  0.6819170531091018 0.7314295131309636 0  0.6671455024759069 0.7449274317181303 0  0.6521068317775753 0.7581270869379442 0  0.6368070623852795 0.7710231937472638 0  0.6212523202121545 0.7836105886414595 0  0.6054488332605282 0.795884231721841 0  0.5894029291282759 0.8078392087135958 0  0.5731210324752972 0.8194707329334278 0  0.5566096624511305 0.8307741472061095 0  0.5398754300847343 0.8417449257291802 0  0.5229250356374803 0.8523786758850435 0  0.5057652659204196 0.8626711399997378 0  0.4884029915768944 0.8726181970476778 0  0.4708451643315825 0.8822158643016828 0  0.45309881420708 0.8914602989276292 0  0.4351710467091336 0.9003477995230937 0  0.4170690399816468 0.9088748075993677 0  0.398800041932607 0.9170379090062476 0  0.3803713673320772 0.9248338352990368 0  0.3617903948834157 0.9322594650472057 0  0.3430645642688987 0.9393118250841893 0  0.3242013731709288 0.9459880916978206 0  0.3052083742700172 0.952285591760924 0  0.2860931722207478 0.9582018038016155 0  0.2668634206069304 0.963734359012881 0  0.2475268188771628 0.9688810422010291 0  0.2280911092620296 0.9736397926726377 0  0.2085640736741707 0.9780087050596407 0  0.1889535305924618 0.9819860300822225 0  0.1692673319315541 0.9855701752492174 0  0.1495133598980264 0.9887597054957302 0  0.1296995238344084 0.9915533437577263 0  0.1098337570523395 0.9939499714833577 0  0.08992401365612977 0.9959486290808237 0  0.06997826535799723 0.9975485163025836 0  0.05000449828625179 0.9987489925657699 0  0.03001070978771124 0.9995495772086734 0  0.01000490522562346 0.9999499496831961 0  -0.01000490522562333 0.9999499496831961 0  -0.03001070978771133 0.9995495772086734 0  -0.05000449828625144 0.9987489925657699 0  -0.06997826535799688 0.9975485163025836 0  -0.08992401365612987 0.9959486290808237 0  -0.1098337570523394 0.9939499714833577 0  -0.1296995238344082 0.9915533437577263 0  -0.1495133598980262 0.9887597054957303 0  -0.1692673319315537 0.9855701752492174 0  -0.1889535305924614 0.9819860300822226 0  -0.2085640736741705 0.9780087050596407 0  -0.2280911092620295 0.9736397926726377 0  -0.2475268188771627 0.9688810422010291 0  -0.2668634206069302 0.9637343590128811 0  -0.2860931722207475 0.9582018038016156 0  -0.3052083742700173 0.9522855917609239 0  -0.3242013731709289 0.9459880916978205 0  -0.3430645642688986 0.9393118250841894 0  -0.3617903948834154 0.9322594650472058 0  -0.380371367332077 0.924833835299037 0  -0.3988000419326071 0.9170379090062476 0  -0.4170690399816465 0.9088748075993678 0  -0.4351710467091335 0.9003477995230939 0  -0.4530988142070799 0.8914602989276292 0  -0.4708451643315824 0.8822158643016829 0  -0.4884029915768945 0.8726181970476778 0  -0.5057652659204197 0.8626711399997378 0  -0.5229250356374801 0.8523786758850437 0  -0.5398754300847342 0.8417449257291804 0  -0.5566096624511303 0.8307741472061098 0  -0.5731210324752971 0.8194707329334279 0  -0.589402929128276 0.8078392087135957 0  -0.6054488332605281 0.7958842317218411 0  -0.6212523202121542 0.7836105886414597 0  -0.6368070623852793 0.7710231937472639 0  -0.652106831777575 0.7581270869379444 0  -0.6671455024759069 0.7449274317181304 0  -0.6819170531091018 0.7314295131309636 0  -0.6964155692588616 0.7176387356420052 0  -0.7106352458278521 0.7035606209753273 0  -0.7245703893640187 0.6892008059026588 0  -0.7382154203402043 0.6745650399864608 0  -0.751564875388149 0.6596591832778469 0  -0.7646134094859813 0.6444892039702628 0  -0.7773557980983258 0.6290611760098654 0  -0.7897869392681683 0.6133812766635599 0  -0.8019018556596398 0.59745578404567 0  -0.8136956965509062 0.5812910746042258 0  -0.8251637397763595 0.5648936205678839 0  -0.836301393617339 0.5482699873544935 0  -0.8471041986406197 0.5314268309423542 0  -0.8575678294839372 0.5143708952052097 0  -0.8676880965878292 0.497109009212054 0  -0.8774609478731045 0.4796480844928216 0  -0.8868824703632656 0.4619951122710621 0  -0.8959488917512338 0.4441571606647088 0  -0.904656581909754 0.426141371856055 0  -0.9130020543448703 0.4079549592320783 0  -0.920981967591891 0.3896052044962555 0  -0.9285931265532872 0.3710994547530226 0  -0.9358324837779861 0.3524451195660473 0  -0.9426971406815462 0.3336496679914984 0  -0.9491843487067303 0.3147206255874888 0  -0.9552915104240065 0.2956655714008993 0  -0.9610161805715396 0.2764921349327862 0  -0.9663560670342555 0.2572079930835851 0  -0.9713090317615876 0.2378208670793361 0  -0.9758730916235353 0.2183385193801658 0  -0.9800464192046954 0.198768750572253 0  -0.9838273435359444 0.1791193962445354 0  -0.987214350763483 0.159398323851397 0  -0.9902060847549714 0.1396134295625972 0  -0.9928013476425149 0.1197726351017052 0  -0.9949991003022804 0.09988388457430147 0  -0.9967984627705549 0.07995514128721509 0  -0.9981987145960756 0.05999438456007793 0  -0.9991992951284931 0.04000960653046362 0  -0.9997998037428526 0.02000880895389464 0  -1 1.224646799147353e-16 0  -0.9997998037428526 -0.0200088089538944 0  -0.9991992951284931 -0.04000960653046338 0  -0.9981987145960756 -0.05999438456007812 0  -0.9967984627705549 -0.07995514128721484 0  -0.9949991003022806 -0.09988388457430078 0  -0.9928013476425149 -0.1197726351017049 0  -0.9902060847549715 -0.1396134295625965 0  -0.9872143507634831 -0.1593983238513963 0  -0.9838273435359444 -0.1791193962445356 0  -0.9800464192046953 -0.1987687505722532 0  -0.9758730916235354 -0.2183385193801655 0  -0.9713090317615876 -0.2378208670793363 0  -0.9663560670342556 -0.2572079930835848 0  -0.9610161805715396 -0.276492134932786 0  -0.9552915104240066 -0.2956655714008991 0  -0.9491843487067305 -0.3147206255874881 0  -0.9426971406815464 -0.3336496679914978 0  -0.9358324837779862 -0.3524451195660471 0  -0.9285931265532875 -0.371099454753022 0  -0.9209819675918909 -0.3896052044962557 0  -0.9130020543448704 -0.407954959232078 0  -0.9046565819097541 -0.4261413718560548 0  -0.8959488917512338 -0.4441571606647086 0  -0.8868824703632655 -0.4619951122710623 0  -0.8774609478731046 -0.4796480844928214 0  -0.8676880965878293 -0.4971090092120538 0  -0.8575678294839373 -0.5143708952052095 0  -0.84710419864062 -0.5314268309423537 0  -0.8363013936173395 -0.5482699873544929 0  -0.8251637397763596 -0.5648936205678838 0  -0.8136956965509061 -0.5812910746042259 0  -0.8019018556596399 -0.5974557840456699 0  -0.7897869392681682 -0.61338127666356 0  -0.777355798098326 -0.6290611760098652 0  -0.7646134094859816 -0.6444892039702625 0  -0.7515648753881492 -0.6596591832778468 0  -0.7382154203402048 -0.6745650399864603 0  -0.7245703893640192 -0.6892008059026583 0  -0.7106352458278522 -0.7035606209753272 0  -0.6964155692588621 -0.7176387356420046 0  -0.6819170531091017 -0.7314295131309637 0  -0.667145502475907 -0.7449274317181303 0  -0.6521068317775756 -0.758127086937944 0  -0.6368070623852792 -0.7710231937472641 0  -0.6212523202121544 -0.7836105886414596 0  -0.6054488332605283 -0.795884231721841 0  -0.5894029291282762 -0.8078392087135956 0  -0.5731210324752977 -0.8194707329334274 0  -0.5566096624511304 -0.8307741472061095 0  -0.5398754300847344 -0.8417449257291802 0  -0.5229250356374798 -0.8523786758850437 0  -0.5057652659204195 -0.8626711399997379 0  -0.4884029915768943 -0.872618197047678 0  -0.4708451643315825 -0.8822158643016828 0  -0.4530988142070805 -0.8914602989276289 0  -0.4351710467091333 -0.900347799523094 0  -0.4170690399816467 -0.9088748075993677 0  -0.3988000419326073 -0.9170379090062475 0  -0.3803713673320777 -0.9248338352990366 0  -0.3617903948834162 -0.9322594650472055 0  -0.3430645642688988 -0.9393118250841893 0  -0.3242013731709283 -0.9459880916978207 0  -0.3052083742700169 -0.9522855917609241 0  -0.2860931722207477 -0.9582018038016155 0  -0.2668634206069305 -0.963734359012881 0  -0.2475268188771631 -0.968881042201029 0  -0.2280911092620301 -0.9736397926726376 0  -0.2085640736741706 -0.9780087050596407 0  -0.1889535305924619 -0.9819860300822225 0  -0.1692673319315544 -0.9855701752492173 0  -0.1495133598980269 -0.9887597054957302 0  -0.1296995238344092 -0.9915533437577262 0  -0.1098337570523396 -0.9939499714833577 0  -0.08992401365612945 -0.9959486290808237 0  -0.06997826535799691 -0.9975485163025836 0  -0.05000449828625168 -0.9987489925657699 0  -0.030010709787
[...]
<PointData  Scalars="Displacement"> 
<DataArray  type="Float64"  Name="Displacement"  format="ascii">0.0000000000000000e+00  0.0000000000000000e+00  0.0000000000000000e+00  0.0000000000000000e+00  0.0000000000000000e+00  0.0000000000000000e+00  0.0000000000000000e+00  0.0000000000000000e+00  0.0000000000000000e+00  0.0000000000000000e+00  0.0000000000000000e+00  0.0000000000000000e+00  0.0000000000000000e+00  0.0000000000000000e+00  0.0000000000000000e+00  0.0000000000000000e+00  0.0000000000000000e+00  0.0000000000000000e+00  0.0000000000000000e+00  0.0000000000000000e+00  0.0000000000000000e+00  0.0000000000000000e+00  0.0000000000000000e+00  0.0000000000000000e+00  0.0000000000000000e+00  0.0000000000000000e+00  0.0000000000000000e+00  0.0000000000000000e+00  0.0000000000000000e+00  0.0000000000000000e+00  0.0000000000000000e+00  0.0000000000000000e+00  0.0000000000000000e+00  0.0000000000000000e+00  0.0000000000000000e+00  0.0000000000000000e+00  0.0000000000000000e+00  0.0000000000000000e+00  0.0000000000000000e+00  0.0000000000000000e+00  0.0000000000000000e+00  0.0000000000000000e+00  0.0000000000000000e+00  0.0000000000000000e+00  0.0000000000000000e+00  0.0000000000000000e+00  0.0000000000000000e+00  0.0000000000000000e+00  0.0000000000000000e+00  0.0000000000000000e+00  0.0000000000000000e+00  0.0000000000000000e+00  0.0000000000000000e+00  0.0000000000000000e+00  0.0000000000000000e+00  0.0000000000000000e+00  0.0000000000000000e+00  0.0000000000000000e+00  0.0000000000000000e+00  0.0000000000000000e+00  0.0000000000000000e+00  0.0000000000000000e+00  0.0000000000000000e+00  0.0000000000000000e+00  0.0000000000000000e+00  0.0000000000000000e+00  0.0000000000000000e+00  0.0000000000000000e+00  0.0000000000000000e+00  0.0000000000000000e+00  0.0000000000000000e+00  0.0000000000000000e+00  0.0000000000000000e+00  0.0000000000000000e+00  0.0000000000000000e+00  0.0000000000000000e+00  0.0000000000000000e+00  0.0000000000000000e+00  0.0000000000000000e+00  0.0000000000000000e+00  0.0000000000000000e+00  0.0000000000000000e+00  0.0000000000000000e+00  0.0000000000000000e+00  0.0000000000000000e+00  0.0000000000000000e+00  0.0000000000000000e+00  0.0000000000000000e+00  0.0000000000000000e+00  0.0000000000000000e+00  0.0000000000000000e+00  0.0000000000000000e+00  0.0000000000000000e+00  0.0000000000000000e+00  0.0000000000000000e+00  0.0000000000000000e+00  0.0000000000000000e+00  0.0000000000000000e+00  0.0000000000000000e+00  0.0000000000000000e+00  0.0000000000000000e+00  0.0000000000000000e+00  0.0000000000000000e+00  0.0000000000000000e+00  0.0000000000000000e+00  0.0000000000000000e+00  0.0000000000000000e+00  0.0000000000000000e+00  0.0000000000000000e+00  0.0000000000000000e+00  0.0000000000000000e+00  0.0000000000000000e+00  0.0000000000000000e+00  0.0000000000000000e+00  0.0000000000000000e+00  0.0000000000000000e+00  0.0000000000000000e+00  0.0000000000000000e+00  0.0000000000000000e+00  0.0000000000000000e+00  0.0000000000000000e+00  0.0000000000000000e+00  0.0000000000000000e+00  0.0000000000000000e+00  0.0000000000000000e+00  0.0000000000000000e+00  0.0000000000000000e+00  0.0000000000000000e+00  0.0000000000000000e+00  0.0000000000000000e+00  0.0000000000000000e+00  0.0000000000000000e+00  0.0000000000000000e+00  0.0000000000000000e+00  0.0000000000000000e+00  0.0000000000000000e+00  0.0000000000000000e+00  0.0000000000000000e+00  0.0000000000000000e+00  0.0000000000000000e+00  0.0000000000000000e+00  0.0000000000000000e+00  0.0000000000000000e+00  0.0000000000000000e+00  0.0000000000000000e+00  0.0000000000000000e+00  0.0000000000000000e+00  0.0000000000000000e+00  0.0000000000000000e+00  0.0000000000000000e+00  0.0000000000000000e+00  0.0000000000000000e+00  0.0000000000000000e+00  0.0000000000000000e+00  0.0000000000000000e+00  0.0000000000000000e+00  0.0000000000000000e+00  0.0000000000000000e+00  0.0000000000000000e+00  0.0000000000000000e+00  0.0000000000000000e+00  0.0000000000000000e+00  0.0000000000000000e+00  0.0000000000000000e+00  0.0000000000000000e+00  0.0000000000000000e+00  0.0000000000000000e+00  0.0000000000000000e+00  0.0000000000000000e+00  0.0000000000000000e+00  0.0000000000000000e+00  0.0000000000000000e+00  0.0000000000000000e+00  0.0000000000000000e+00  0.0000000000000000e+00  0.0000000000000000e+00  0.0000000000000000e+00  0.0000000000000000e+00  0.0000000000000000e+00  0.0000000000000000e+00  0.0000000000000000e+00  0.0000000000000000e+00  0.0000000000000000e+00  0.0000000000000000e+00  0.0000000000000000e+00  0.0000000000000000e+00  0.0000000000000000e+00  0.0000000000000000e+00  0.0000000000000000e+00  0.0000000000000000e+00  0.0000000000000000e+00  0.0000000000000000e+00  0.0000000000000000e+00  0.0000000000000000e+00  0.0000000000000000e+00  0.0000000000000000e+00  0.0000000000000000e+00  0.0000000000000000e+00  0.0000000000000000e+00  0.0000000000000000e+00  0.0000000000000000e+00  0.0000000000000000e+00  0.0000000000000000e+00  0.0000000000000000e+00  0.0000000000000000e+00  0.0000000000000000e+00  0.0000000000000000e+00  0.0000000000000000e+00  0.0000000000000000e+00  0.0000000000000000e+00  0.0000000000000000e+00  0.0000000000000000e+00  0.0000000000000000e+00  0.0000000000000000e+00  0.0000000000000000e+00  0.0000000000000000e+00  0.0000000000000000e+00  0.0000000000000000e+00  0.0000000000000000e+00  0.0000000000000000e+00  0.0000000000000000e+00  0.0000000000000000e+00  0.0000000000000000e+00  0.0000000000000000e+00  0.0000000000000000e+00  0.0000000000000000e+00  0.0000000000000000e+00  0.0000000000000000e+00  0.0000000000000000e+00  0.0000000000000000e+00  0.0000000000000000e+00  0.0000000000000000e+00  0.0000000000000000e+00  0.0000000000000000e+00  0.0000000000000000e+00  0.0000000000000000e+00  0.0000000000000000e+00  0.0000000000000000e+00  0.0000000000000000e+00  0.0000000000000000e+00  0.0000000000000000e+00  0.0000000000000000e+00  0.0000000000000000e+00  0.0000000000000000e+00  0.0000000000000000e+00  0.0000000000000000e+00  0.0000000000000000e+00  0.0000000000000000e+00  0.0000000000000000e+00  0.0000000000000000e+00  0.0000000000000000e+00  0.0000000000000000e+00  0.0000000000000000e+00  0.0000000000000000e+00  0.0000000000000000e+00  0.0000000000000000e+00  0.0000000000000000e+00  0.0000000000000000e+00  0.0000000000000000e+00  0.0000000000000000e+00  0.0000000000000000e+00  0.0000000000000000e+00  0.0000000000000000e+00  0.0000000000000000e+00  0.0000000000000000e+00  0.0000000000000000e+00  0.0000000000000000e+00  0.0000000000000000e+00  0.0000000000000000e+00  0.0000000000000000e+00  0.0000000000000000e+00  0.0000000000000000e+00  0.0000000000000000e+00  0.0000000000000000e+00  0.0000000000000000e+00  0.0000000000000000e+00  0.0000000000000000e+00  0.0000000000000000e+00  0.0000000000000000e+00  0.0000000000000000e+00  0.0000000000000000e+00  0.0000000000000000e+00  0.0000000000000000e+00  0.0000000000000000e+00  0.0000000000000000e+00  0.0000000000000000e+00  0.0000000000000000e+00  0.0000000000000000e+00  0.0000000000000000e+00  0.0000000000000000e+00  0.0000000000000000e+00  0.0000000000000000e+00  0.0000000000000000e+00  0.0000000000000000e+00  0.0000000000000000e+00  0.0000000000000000e+00  0.0000000000000000e+00  0.0000000000000000e+00  0.0000000000000000e+00  0.0000000000000000e+00  0.0000000000000000e+00  0.0000000000000000e+00  0.0000000000000000e+00  0.0000000000000000e+00  0.0000000000000000e+00  0.0000000000000000e+00  0.0000000000000000e+00  0.0000000000000000e+00  0.0000000000000000e+00  0.0000000000000000e+00  0.0000000000000000e+00  0.0000000000000000e+00  0.0000000000000000e+00  0.0000000000000000e+00  -8.8729327750649623e-02  1.5088999448894982e-01  1.5076733499117106e-01  1.5059507236265621e-01  1.5081505527658570e-01  1.5080305719357542e-01  6.2583893683557754e-02  9.2580924237843632e-04  1.2283315199133793e-04  -1.9358678055467039e-05  -3.0711186612044648e-06  2.6408136963385637e-02  1.5223621680425726e-07  1.1889991776136911e-08  -1.3317322319802089e-03  -2.2878853813577477e-02  -1.6692571947023555e-09  -5.0245648382781600e-10  -8.0749775953139422e-10  -5.7393310156090497e-10  -3.8760814140052323e-11  -5.3366287113860424e-11  -1.6418562513601528e-11  1.7521875138386639e-01  1.7527712063345632e-01  -1.0810681178159570e-01  2.0697724410399767e-10  -2.1648974799999239e-12  1.7665333981168051e-12  1.7105604085031434e-01  2.9668002945451001e-12  -4.9396397484898956e-02  -1.6658154075527215e-01  1.6018164641242999e-01  -4.4831025331337290e-14  -5.2458349991419666e-14  2.2179942791099343e-14  6.0169905674015875e-15  6.5047929076198195e-16  8.5444805932186257e-02  7.6129916259281200e-02  6.6076147426688200e-02  6.1905038404074110e-02  -1.8297939538338073e-01  1.2910368108268875e-14  9.1295031166929882e-16  -5.2111706813691004e-16  -9.6332907093390599e-16  3.1576929715784616e-02  3.9376615909554574e-02  -1.6578422825176791e-06  8.8746317947185530e-02  5.3511053675747045e-02  1.7704651262772339e-01  -1.9085187903657136e-17  -1.8100575918890774e-01  -1.3889761712053036e-15  3.0025233947674922e-18  7.6022276234321021e-02  -1.0560202503797059e-16  -2.5127144008115847e-17  -3.1621029808769345e-05  2.0659919408428613e-18  -1.7112603410362826e-16  7.6329256685671754e-02  -1.1346052316492504e-01  1.6962650903051144e-01  1.7691172929161753e-01  1.6505350682851233e-01  -1.6272774755820829e-01  7.2761823182207974e-02  3.4547359538498093e-02  2.5593397237428212e-03  7.1522108298475414e-03  7.4183692214858047e-03  1.2774044636449353e-01  7.6329824455732192e-17  1.8450821831892050e-01  1.2469411505865791e-01  3.9698072250098630e-05  1.4444388054611484e-17  1.7839861403267215e-01  -7.9795953945041593e-20  -2.7447629380341042e-20  1.0310983952144764e-18  -1.4683632607962557e-01  -3.0551890494873174e-18  -2.7941731624035299e-17  -3.2560245686673589e-19  1.6243192538764048e-01  -3.9576390467609759e-07  -7.1099806988664957e-22  3.3853323923388793e-03  -1.6975473999044316e-19  -1.6258513823660612e-06  -1.8281105817157731e-01  -6.6087165433113947e-19  2.3484470114481089e-19  -3.5963266245037845e-07  6.8716047830536243e-08  6.4049539915797044e-05  1.3484191809842775e-06  2.0040325875933631e-19  1.8351900614381708e-01  1.0252415222737148e-01  1.0251211779600011e-01  1.8699272437304340e-01  8.5703662594376442e-08  -1.2673830638434438e-07  -5.2181386236263119e-21  1.8665243210413510e-01  -9.2082301456098336e-20  3.0213083967956173e-19  2.6607005106502775e-02  1.6913616143469309e-02  2.9692758431056307e-08  -9.6863383077404710e-21  -2.3464322527371148e-19  -4.3645479368151486e-20  -1.6220528706981588e-01  1.8502772706267803e-01  2.8976719616329950e-11  -1.4872106317137694e-02  -1.0757643350054949e-17  -4.3256623202006930e-10  -5.8897133574790020e-06  1.0773366858922534e-20  -2.7168953484669485e-22  -2.1469186930390897e-09  -9.0321292951147183e-10  -1.0668969755077413e-05  -3.2776160868663713e-09  2.3178805262138421e-03  1.7525372893678892e-01  3.2018447126173577e-02  4.1325549672277875e-08  3.8689351712561570e-22  -3.7691760095783088e-02  1.5957524612689725e-01  5.5398157017588566e-02  -1.0810740257594750e-01  -3.9605709053201946e-02  4.6006753337924425e-13  1.8669391999019780e-01  2.5314880498779085e-02  -4.0626510011315254e-12  1.1487998643312400e-11  1.3883919686122253e-02  -1.8233557179893339e-01  2.2913337956426415e-04  3.5055449789470926e-21  2.0995752787170859e-02  1.6301654197186130e-01  -9.1810844269619908e-12  -1.0315087373080149e-11  -6.9498623390364522e-16  4.3227341693427478e-22  4.4833536289152167e-13  7.2400601726414089e-21  2.1752799063194578e-21  3.0780966107305854e-20  -6.1760994917623514e-11  1.5877654042551648e-05  -6.1651399622481432e-22  -4.4947574445863128e-15  1.3887901972832628e-01  -2.7129417074934414e-13  4.0669765964239803e-21  2.3991382735494017e-21  1.4922787381685092e-12  4.1666462906560717e-02  -1.0437459352527514e-01  5.1427249675285143e-13  1.7079768275448626e-01  8.0672694565166614e-23  1.7975278384991455e-01  2.6289997617733443e-22  -2.7714860981542243e-10  -7.4852973914229534e-22  1.6405383438228005e-01  1.2982478668043919e-13  1.1635963306223869e-01  3.2197946811495112e-02  -1.2790497146491794e-01  1.8967581367250668e-21  8.9775935618353606e-02  2.4230513690208958e-04  1.6172327257142063e-01  9.0183119908519506e-25  8.3530379788853124e-16  7.3520975469887632e-22  -1.8271137282917976e-01  -2.0262091082825994e-22  1.9236313505476577e-21  1.1424529821862085e-01  9.6705181026187387e-02  2.9766735446992909e-10  -4.4080936947493087e-13  1.3731121406521310e-01  -3.7721752689249307e-05  1.8475402349956566e-02  4.5320755849335398e-02  1.5465292561438862e-01  8.9643668928546583e-05  1.7479958846999620e-02  -4.2263299999443365e-13  -9.5356044140253290e-15  -8.5063765688587104e-02  -8.6313770631348677e-19  -1.1709827087768550e-13  -1.5071204142343802e-09  -1.7768566365691593e-01  -1.0321247033860731e-01  3.7121245405071314e-23  1.7324060824982583e-21  2.2007754291718572e-12  1.6937021582625497e-01  -4.2558633920181600e-22  2.1104979490654658e-04  -1.1647130652092903e-05  4.6376635641473751e-18  -1.4850419395538502e-06  1.8511523581316230e-01  1.5408352872759072e-03  -3.1291954935409060e-06  -5.9006888995875031e-22  1.4076627467818725e-07  -3.6710642541599241e-23  -2.2397908589056682e-06  1.7797269627251035e-21  -4.2421704842948038e-21  -1.6853963916078573e-23  1.7351493481997120e-23  -3.1839744367388609e-16  1.6015510368142762e-22  1.8051301110337192e-01  2.1624297168987266e-02  3.1428630373185266e-14  -3.7964486534796921e-15  -5.9490751928056723e-02  4.9921453431050838e-02  2.4675176037156988e-04  4.5256789029753074e-03  3.0392123397079720e-21  1.4600591084455339e-01  1.2932756440001454e-22  1.2218641802003342e-23  1.0259263102045544e-21  1.5576581369944636e-01  1.6718038152704220e-01  7.4189096419201503e-02  8.3651490611265450e-02  -1.3368073973090977e-02  -1.0363502526491720e-01  1.1811159652170041e-15  1.7728629515966401e-01  2.4885750414061744e-11  9.5327753524829376e-02  1.1491267637155847e-20  2.0856032410823750e-23  2.3783728546652825e-20  1.0918343022215846e-07  1.8147473244408705e-14  3.6083313664387016e-02  1.7128431066422722e-01  1.8148283982891855e-01  -9.5113267928489665e-16  -4.5420034885393153e-19  -5.2620829871370145e-21  3.6222878313467315e-02  -4.2349373618840904e-23  1.6043153027564444e-01  1.7559758488534191e-01  -1.1511673790844791e-10  -3.6138946273401663e-14  2.7181713691542667e-07  1.1569038641453699e-01  8.1316530010386065e-02  1.6637165785870819e-01  1.3646259635845850e-01  5.8859050911861319e-02  -1.1488681670602000e-01  -1.4441952839556813e-01  -7.8698891112776293e-06  3.4522343294120316e-08  -1.3640171960317029e-09  5.4142253214430745e-02  -1.6416184887091135e-22  1.7500368538844897e-14  1.8512403297954633e-01  -1.3751498654598548e-01  1.7714928583895062e-01  1.4724474241430483e-04  6.1315839821570205e-02  -1.6795046206194461e-01  4.5630169458101494e-24  8.3866246334564867e-02  -9.0369251889865139e-26  3.7654581285146565e-23  -2.6239874798558932e-22  -1.8298584111703214e-01  -1.0059806211378917e-01  8.3702625706056633e-02  -8.2103914048468049e-02  -6.2192349785386811e-07  2.0057242140819388e-03  3.5629361339974091e-09  2.5500919720130008e-02  -1.2486940612089638e-05  2.3240151356117088e-04  9.0174936992963736e-02  -2.0219661526797673e-05  5.6405394482778683e-02  -1.0398569635295394e-11  -1.4563417703697948e-01  -1.0636826227745926e-01  4.2128879381475685e-02  1.9715636936909980e-09  -5.6033392033966255e-08  -2.5489655831002401e-24  -1.3810197897512403e-12  1.5906116999385170e-12  6.3264637023179097e-24  1.3425453688884725e-01  1.0712235444810985e-23  1.9382337068342586e-24  4.4974999978688100e-16  1.8533421768509539e-01  1.5964100531063780e-01  -1.8108480963496869e-04  6.9874875770152454e-24  -5.9420763981889996e-09  -3.4683098789673741e-05  1.2862834528565789e-01  1.1986310198717277e-01  -3.7548215805945883e-10  1.4533284399102822e-01  1.3310815018706060e-01  -1.0969401658128741e-01  8.6395101219815829e-09  -9.9602886859920963e-14  1.5023035241224630e-01  1.2811302034210772e-16  5.9070235243770549e-18  -3.3852469645764119e-07  -7.6254195932870699e-25  2.1086081456466033e-14  2.2199661350099037e-12  4.2000710303143274e-24  -4.2027939526181564e-07  -1.9167914491960668e-06  1.1031694915402975e-24  1.5979306268267601e-17  5.0142660893348486e-22  -3.3598336303382885e-16  -1.1305962728072955e-16  7.2441728869333047e-02  -9.6916734399280294e-02  3.3922227513191376e-15  -1.8207242709744506e-01  -1.7174368894590503e-01  8.0046941145514117e-10  -9.1119865218875683e-26  1.6583031390599436e-02  -3.9354836948251737e-17  9.1629213137120080e-02  7.2527089324476006e-19  7.9101438929843522e-08  -1.1789422609056957e-01  1.3513030705097219e-14  -8.5733568710999320e-24  2.2380856666808944e-21  2.6784171832618234e-15  1.5902751059713330e-01  1.8453362495073197e-01  1.2054660733261854e-08  -3.8849365276614442e-22  -1.7115525504270374e-01  1.2125422435347533e-02  -1.6566395870663230e-23  1.1122295238296137e-01  7.0901953969244364e-24  -1.0611250725888224e-15  1.4553246289333191e-01  -4.2300283863452174e-24  -1.1693178675112753e-01  6.8518601420564207e-26  -2.4624190346720164e-14  1.1215013404239592e-24  1.8586713371246677e-01  3.7971879349734262e-02  -7.9915884589315020e-07  4.2902487956717326e-02  1.5923984395223146e-23  1.1059559529703467e-14  1.8547308488911229e-01  -4.7044544348917990e-22  5.6340234877158739e-03  -2.7466320521395116e-10  -9.1907741714577161e-25  7.6227304172007222e-24  8.4253959259563915e-02  -4.5050634143142437e-18  1.7695508856147890e-01  -4.3028015435004170e-10  9.2573995876436485e-02  3.1782482221581643e-02  -8.6811400843204521e-25  -7.8310321585936600e-16  -3.7804578338609358e-14  -1.3788217249743679e-17  -4.2156453470435685e-18  1.8390443833848688e-01  1.6258546638628113e-01  -1.4748184111497864e-01  1.6831122497475245e-01  -2.2073934663375131e-16  -4.5103702344679872e-03  1.5712222367922671e-01  -5.2923007071890621e-16  -4.8572799471434932e-24  -4.4052878147805004e-22  2.4614037961908130e-03  -1.0914244326323670e-05  -4.5726830696075550e-10  1.7242550471697707e-01  8.2547988243954361e-10  -6.9288650541201885e-26  4.6607667997759274e-24  -2.3876708652100020e-24  -2.8347280816319625e-05  -5.9832596992262254e-16  -1.8077260277274246e-11  9.6216434790685135e-18  -2.2535574570063304e-15  -2.1187725392197040e-15  2.1471868231905918e-03  3.6138784234874622e-14  1.4925858360017083e-01  1.7326908099609500e-02  6.4445927002061698e-02  1.3069630064219328e-02  1.1814200559368736e-01  1.8691070088835934e-01  2.2695678601425209e-17  1.8683976036258154e-01  1.1755237315293122e-11  -1.3305023255032100e-01  1.9435263526267552e-05  1.4617311830599117e-01  9.8931856997999695e-02  1.8227038328601353e-01  2.9603701817827388e-17  -1.1142123291396987e-23  2.5701690271628483e-23  -2.8445154154811834e-02  2.7536337818396695e-07  1.2668283499710672e-01  1.5147323322774772e-01  1.1850582509805559e-19  1.8442561030613352e-02  -6.0638454659088222e-27  -1.2619098219887112e-01  8.6831183537709855e-02  1.6146998224894649e-01  -2.8713668138592143e-12  2.6601399128696413e-16  1.9830390528931071e-18  -1.8955442596434676e-09  -2.5979224589680341e-09  3.8979421650584684e-02  1.3927513310258539e-19  1.6410873447624583e-01  1.2542121585693727e-01  2.4805641771910086e-14  -1.3068895783565257e-01  -2.5721093440688865e-08  1.2908064204207395e-01  1.0642671711355702e-08  1.0753778355176184e-03  -4.0459115424966372e-05  2.5401755427988163e-11  -1.9619703778170739e-26  1.1542910290519941e-17  -1.1701065928579652e-25  4.7608862613508305e-20  4.9889246445539729e-22  1.3879784931133007e-01  -5.4212989229656230e-14  2.6681184051679890e-02  4.8086203099772869e-11  1.8697225998469139e-01  4.3013111340049016e-02  1.0115948287356709e-01  6.3255575023524916e-23  1.8661615977448112e-01  -6.3104553707390836e-20  -7.0306197048789338e-25  7.2804698795437754e-25  1.0470030359782877e-01  9.2688886932202162e-18  2.7859986631962268e-24  9.7156491226305541e-02  8.2557919192761245e-02  3.3121709575066713e-04  1.2853014130762787e-12  1.2649781859944327e-17