<?xml version="1.0"?>
<VTKFile type="UnstructuredGrid"  version="0.1"  >
<UnstructuredGrid>
<Piece  NumberOfPoints="20054" NumberOfCells="39478">
<Points>
<DataArray  type="Float64"  NumberOfComponents="3"  format="ascii">1 0 0  0.9997998037428526 0.02000880895389431 0  0.9991992951284931 0.04000960653046352 0  0.9981987145960756 0.05999438456007805 0  0.9967984627705549 0.07995514128721501 0  0.9949991003022806 0.09988388457430118 0  0.9928013476425149 0.1197726351017051 0  0.9902060847549715 0.139613429562597 0  0.987214350763483 0.1593983238513969 0  0.9838273435359444 0.1791193962445356 0  0.9800464192046954 0.198768750572253 0  0.9758730916235354 0.2183385193801655 0  0.9713090317615876 0.237820867079336 0  0.9663560670342555 0.2572079930835849 0  0.9610161805715396 0.2764921349327862 0  0.9552915104240066 0.2956655714008991 0  0.9491843487067304 0.3147206255874884 0  0.9426971406815462 0.3336496679914983 0  0.9358324837779861 0.3524451195660473 0  0.9285931265532873 0.3710994547530225 0  0.9209819675918909 0.3896052044962556 0  0.9130020543448703 0.4079549592320781 0  0.9046565819097542 0.4261413718560547 0  0.8959488917512338 0.4441571606647087 0  0.8868824703632656 0.4619951122710622 0  0.8774609478731046 0.4796480844928215 0  0.8676880965878291 0.4971090092120542 0  0.8575678294839372 0.5143708952052096 0  0.8471041986406199 0.5314268309423539 0  0.8363013936173391 0.5482699873544935 0  0.8251637397763597 0.5648936205678837 0  0.8136956965509062 0.5812910746042258 0  0.8019018556596399 0.5974557840456699 0  0.7897869392681683 0.6133812766635599 0  0.777355798098326 0.6290611760098652 0  0.7646134094859813 0.6444892039702628 0  0.7515648753881492 0.6596591832778468 0  0.7382154203402046 0.6745650399864606 0  0.7245703893640189 0.6892008059026586 0  0.7106352458278521 0.7035606209753273 0  0.6964155692588616 0.7176387356420051 0  0.6819170531091018 0.7314295131309636 0  0.6671455024759069 0.7449274317181303 0  0.6521068317775753 0.7581270869379442 0  0.6368070623852795 0.7710231937472638 0  0.6212523202121545 0.7836105886414595 0  0.6054488332605282 0.795884231721841 0  0.5894029291282759 0.8078392087135958 0  0.5731210324752972 0.8194707329334278 0  0.5566096624511305 0.8307741472061095 0  0.5398754300847343 0.8417449257291802 0  0.5229250356374803 0.8523786758850435 0  0.5057652659204196 0.8626711399997378 0  0.4884029915768944 0.8726181970476778 0  0.4708451643315825 0.8822158643016828 0  0.45309881420708 0.8914602989276292 0  0.4351710467091336 0.9003477995230937 0  0.4170690399816468 0.9088748075993677 0  0.398800041932607 0.9170379090062476 0  0.3803713673320772 0.9248338352990368 0  0.3617903948834157 0.9322594650472057 0  0.3430645642688987 0.9393118250841893 0  0.3242013731709288 0.9459880916978206 0  0.3052083742700172 0.952285591760924 0  0.2860931722207478 0.9582018038016155 0  0.2668634206069304 0.963734359012881 0  0.2475268188771628 0.9688810422010291 0  0.2280911092620296 0.9736397926726377 0  0.2085640736741707 0.9780087050596407 0  0.1889535305924618 0.9819860300822225 0  0.1692673319315541 0.9855701752492174 0  0.1495133598980264 0.9887597054957302 0  0.1296995238344084 0.9915533437577263 0  0.1098337570523395 0.9939499714833577 0  0.08992401365612977 0.9959486290808237 0  0.06997826535799723 0.9975485163025836 0  0.05000449828625179 0.9987489925657699 0  0.03001070978771124 0.9995495772086734 0  0.01000490522562346 0.9999499496831961 0  -0.01000490522562333 0.9999499496831961 0  -0.03001070978771133 0.9995495772086734 0  -0.05000449828625144 0.9987489925657699 0  -0.06997826535799688 0.9975485163025836 0  -0.08992401365612987 0.9959486290808237 0  -0.1098337570523394 0.9939499714833577 0  -0.1296995238344082 0.9915533437577263 0  -0.1495133598980262 0.9887597054957303 0  -0.1692673319315537 0.9855701752492174 0  -0.1889535305924614 0.9819860300822226 0  -0.2085640736741705 0.9780087050596407 0  -0.2280911092620295 0.9736397926726377 0  -0.2475268188771627 0.9688810422010291 0  -0.2668634206069302 0.9637343590128811 0  -0.2860931722207475 0.9582018038016156 0  -0.3052083742700173 0.9522855917609239 0  -0.3242013731709289 0.9459880916978205 0  -0.3430645642688986 0.9393118250841894 0  -0.3617903948834154 0.9322594650472058 0  -0.380371367332077 0.924833835299037 0  -0.3988000419326071 0.9170379090062476 0  -0.4170690399816465 0.9088748075993678 0  -0.4351710467091335 0.9003477995230939 0  -0.4530988142070799 0.8914602989276292 0  -0.4708451643315824 0.8822158643016829 0  -0.4884029915768945 0.8726181970476778 0  -0.5057652659204197 0.8626711399997378 0  -0.5229250356374801 0.8523786758850437 0  -0.5398754300847342 0.8417449257291804 0  -0.5566096624511303 0.8307741472061098 0  -0.5731210324752971 0.8194707329334279 0  -0.589402929128276 0.8078392087135957 0  -0.6054488332605281 0.7958842317218411 0  -0.6212523202121542 0.7836105886414597 0  -0.6368070623852793 0.7710231937472639 0  -0.652106831777575 0.7581270869379444 0  -0.6671455024759069 0.7449274317181304 0  -0.6819170531091018 0.7314295131309636 0  -0.6964155692588616 0.7176387356420052 0  -0.7106352458278521 0.7035606209753273 0  -0.7245703893640187 0.6892008059026588 0  -0.7382154203402043 0.6745650399864608 0  -0.751564875388149 0.6596591832778469 0  -0.7646134094859813 0.6444892039702628 0  -0.7773557980983258 0.6290611760098654 0  -0.7897869392681683 0.6133812766635599 0  -0.8019018556596398 0.59745578404567 0  -0.8136956965509062 0.5812910746042258 0  -0.8251637397763595 0.5648936205678839 0  -0.836301393617339 0.5482699873544935 0  -0.8471041986406197 0.5314268309423542 0  -0.8575678294839372 0.5143708952052097 0  -0.8676880965878292 0.497109009212054 0  -0.8774609478731045 0.4796480844928216 0  -0.8868824703632656 0.4619951122710621 0  -0.8959488917512338 0.4441571606647088 0  -0.904656581909754 0.426141371856055 0  -0.9130020543448703 0.4079549592320783 0  -0.920981967591891 0.3896052044962555 0  -0.9285931265532872 0.3710994547530226 0  -0.9358324837779861 0.3524451195660473 0  -0.9426971406815462 0.3336496679914984 0  -0.9491843487067303 0.3147206255874888 0  -0.9552915104240065 0.2956655714008993 0  -0.9610161805715396 0.2764921349327862 0  -0.9663560670342555 0.2572079930835851 0  -0.9713090317615876 0.2378208670793361 0  -0.9758730916235353 0.2183385193801658 0  -0.9800464192046954 0.198768750572253 0  -0.9838273435359444 0.1791193962445354 0  -0.987214350763483 0.159398323851397 0  -0.9902060847549714 0.1396134295625972 0  -0.9928013476425149 0.1197726351017052 0  -0.9949991003022804 0.09988388457430147 0  -0.9967984627705549 0.07995514128721509 0  -0.9981987145960756 0.05999438456007793 0  -0.9991992951284931 0.04000960653046362 0  -0.9997998037428526 0.02000880895389464 0  -1 1.224646799147353e-16 0  -0.9997998037428526 -0.0200088089538944 0  -0.9991992951284931 -0.04000960653046338 0  -0.9981987145960756 -0.05999438456007812 0  -0.9967984627705549 -0.07995514128721484 0  -0.9949991003022806 -0.09988388457430078 0  -0.9928013476425149 -0.1197726351017049 0  -0.9902060847549715 -0.1396134295625965 0  -0.9872143507634831 -0.1593983238513963 0  -0.9838273435359444 -0.1791193962445356 0  -0.9800464192046953 -0.1987687505722532 0  -0.9758730916235354 -0.2183385193801655 0  -0.9713090317615876 -0.2378208670793363 0  -0.9663560670342556 -0.2572079930835848 0  -0.9610161805715396 -0.276492134932786 0  -0.9552915104240066 -0.2956655714008991 0  -0.9491843487067305 -0.3147206255874881 0  -0.9426971406815464 -0.3336496679914978 0  -0.9358324837779862 -0.3524451195660471 0  -0.9285931265532875 -0.371099454753022 0  -0.9209819675918909 -0.3896052044962557 0  -0.9130020543448704 -0.407954959232078 0  -0.9046565819097541 -0.4261413718560548 0  -0.8959488917512338 -0.4441571606647086 0  -0.8868824703632655 -0.4619951122710623 0  -0.8774609478731046 -0.4796480844928214 0  -0.8676880965878293 -0.4971090092120538 0  -0.8575678294839373 -0.5143708952052095 0  -0.84710419864062 -0.5314268309423537 0  -0.8363013936173395 -0.5482699873544929 0  -0.8251637397763596 -0.5648936205678838 0  -0.8136956965509061 -0.5812910746042259 0  -0.8019018556596399 -0.5974557840456699 0  -0.7897869392681682 -0.61338127666356 0  -0.777355798098326 -0.6290611760098652 0  -0.7646134094859816 -0.6444892039702625 0  -0.7515648753881492 -0.6596591832778468 0  -0.7382154203402048 -0.6745650399864603 0  -0.7245703893640192 -0.6892008059026583 0  -0.7106352458278522 -0.7035606209753272 0  -0.6964155692588621 -0.7176387356420046 0  -0.6819170531091017 -0.7314295131309637 0  -0.667145502475907 -0.7449274317181303 0  -0.6521068317775756 -0.758127086937944 0  -0.6368070623852792 -0.7710231937472641 0  -0.6212523202121544 -0.7836105886414596 0  -0.6054488332605283 -0.795884231721841 0  -0.5894029291282762 -0.8078392087135956 0  -0.5731210324752977 -0.8194707329334274 0  -0.5566096624511304 -0.8307741472061095 0  -0.5398754300847344 -0.8417449257291802 0  -0.5229250356374798 -0.8523786758850437 0  -0.5057652659204195 -0.8626711399997379 0  -0.4884029915768943 -0.872618197047678 0  -0.4708451643315825 -0.8822158643016828 0  -0.4530988142070805 -0.8914602989276289 0  -0.4351710467091333 -0.900347799523094 0  -0.4170690399816467 -0.9088748075993677 0  -0.3988000419326073 -0.9170379090062475 0  -0.3803713673320777 -0.9248338352990366 0  -0.3617903948834162 -0.9322594650472055 0  -0.3430645642688988 -0.9393118250841893 0  -0.3242013731709283 -0.9459880916978207 0  -0.3052083742700169 -0.9522855917609241 0  -0.2860931722207477 -0.9582018038016155 0  -0.2668634206069305 -0.963734359012881 0  -0.2475268188771631 -0.968881042201029 0  -0.2280911092620301 -0.9736397926726376 0  -0.2085640736741706 -0.9780087050596407 0  -0.1889535305924619 -0.9819860300822225 0  -0.1692673319315544 -0.9855701752492173 0  -0.1495133598980269 -0.9887597054957302 0  -0.1296995238344092 -0.9915533437577262 0  -0.1098337570523396 -0.9939499714833577 0  -0.08992401365612945 -0.9959486290808237 0  -0.06997826535799691 -0.9975485163025836 0  -0.05000449828625168 -0.9987489925657699 0  -0.030010709787
[...]
<PointData  Scalars="Displacement"> 
<DataArray  type="Float64"  Name="Displacement"  format="ascii">0.0000000000000000e+00  0.0000000000000000e+00  0.0000000000000000e+00  0.0000000000000000e+00  0.0000000000000000e+00  0.0000000000000000e+00  0.0000000000000000e+00  0.0000000000000000e+00  0.0000000000000000e+00  0.0000000000000000e+00  0.0000000000000000e+00  0.0000000000000000e+00  0.0000000000000000e+00  0.0000000000000000e+00  0.0000000000000000e+00  0.0000000000000000e+00  0.0000000000000000e+00  0.0000000000000000e+00  0.0000000000000000e+00  0.0000000000000000e+00  0.0000000000000000e+00  0.0000000000000000e+00  0.0000000000000000e+00  0.0000000000000000e+00  0.0000000000000000e+00  0.0000000000000000e+00  0.0000000000000000e+00  0.0000000000000000e+00  0.0000000000000000e+00  0.0000000000000000e+00  0.0000000000000000e+00  0.0000000000000000e+00  0.0000000000000000e+00  0.0000000000000000e+00  0.0000000000000000e+00  0.0000000000000000e+00  0.0000000000000000e+00  0.0000000000000000e+00  0.0000000000000000e+00  0.0000000000000000e+00  0.0000000000000000e+00  0.0000000000000000e+00  0.0000000000000000e+00  0.0000000000000000e+00  0.0000000000000000e+00  0.0000000000000000e+00  0.0000000000000000e+00  0.0000000000000000e+00  0.0000000000000000e+00  0.0000000000000000e+00  0.0000000000000000e+00  0.0000000000000000e+00  0.0000000000000000e+00  0.0000000000000000e+00  0.0000000000000000e+00  0.0000000000000000e+00  0.0000000000000000e+00  0.0000000000000000e+00  0.0000000000000000e+00  0.0000000000000000e+00  0.0000000000000000e+00  0.0000000000000000e+00  0.0000000000000000e+00  0.0000000000000000e+00  0.0000000000000000e+00  0.0000000000000000e+00  0.0000000000000000e+00  0.0000000000000000e+00  0.0000000000000000e+00  0.0000000000000000e+00  0.0000000000000000e+00  0.0000000000000000e+00  0.0000000000000000e+00  0.0000000000000000e+00  0.0000000000000000e+00  0.0000000000000000e+00  0.0000000000000000e+00  0.0000000000000000e+00  0.0000000000000000e+00  0.0000000000000000e+00  0.0000000000000000e+00  0.0000000000000000e+00  0.0000000000000000e+00  0.0000000000000000e+00  0.0000000000000000e+00  0.0000000000000000e+00  0.0000000000000000e+00  0.0000000000000000e+00  0.0000000000000000e+00  0.0000000000000000e+00  0.0000000000000000e+00  0.0000000000000000e+00  0.0000000000000000e+00  0.0000000000000000e+00  0.0000000000000000e+00  0.0000000000000000e+00  0.0000000000000000e+00  0.0000000000000000e+00  0.0000000000000000e+00  0.0000000000000000e+00  0.0000000000000000e+00  0.0000000000000000e+00  0.0000000000000000e+00  0.0000000000000000e+00  0.0000000000000000e+00  0.0000000000000000e+00  0.0000000000000000e+00  0.0000000000000000e+00  0.0000000000000000e+00  0.0000000000000000e+00  0.0000000000000000e+00  0.0000000000000000e+00  0.0000000000000000e+00  0.0000000000000000e+00  0.0000000000000000e+00  0.0000000000000000e+00  0.0000000000000000e+00  0.0000000000000000e+00  0.0000000000000000e+00  0.0000000000000000e+00  0.0000000000000000e+00  0.0000000000000000e+00  0.0000000000000000e+00  0.0000000000000000e+00  0.0000000000000000e+00  0.0000000000000000e+00  0.0000000000000000e+00  0.0000000000000000e+00  0.0000000000000000e+00  0.0000000000000000e+00  0.0000000000000000e+00  0.0000000000000000e+00  0.0000000000000000e+00  0.0000000000000000e+00  0.0000000000000000e+00  0.0000000000000000e+00  0.0000000000000000e+00  0.0000000000000000e+00  0.0000000000000000e+00  0.0000000000000000e+00  0.0000000000000000e+00  0.0000000000000000e+00  0.0000000000000000e+00  0.0000000000000000e+00  0.0000000000000000e+00  0.0000000000000000e+00  0.0000000000000000e+00  0.0000000000000000e+00  0.0000000000000000e+00  0.0000000000000000e+00  0.0000000000000000e+00  0.0000000000000000e+00  0.0000000000000000e+00  0.0000000000000000e+00  0.0000000000000000e+00  0.0000000000000000e+00  0.0000000000000000e+00  0.0000000000000000e+00  0.0000000000000000e+00  0.0000000000000000e+00  0.0000000000000000e+00  0.0000000000000000e+00  0.0000000000000000e+00  0.0000000000000000e+00  0.0000000000000000e+00  0.0000000000000000e+00  0.0000000000000000e+00  0.0000000000000000e+00  0.0000000000000000e+00  0.0000000000000000e+00  0.0000000000000000e+00  0.0000000000000000e+00  0.0000000000000000e+00  0.0000000000000000e+00  0.0000000000000000e+00  0.0000000000000000e+00  0.0000000000000000e+00  0.0000000000000000e+00  0.0000000000000000e+00  0.0000000000000000e+00  0.0000000000000000e+00  0.0000000000000000e+00  0.0000000000000000e+00  0.0000000000000000e+00  0.0000000000000000e+00  0.0000000000000000e+00  0.0000000000000000e+00  0.0000000000000000e+00  0.0000000000000000e+00  0.0000000000000000e+00  0.0000000000000000e+00  0.0000000000000000e+00  0.0000000000000000e+00  0.0000000000000000e+00  0.0000000000000000e+00  0.0000000000000000e+00  0.0000000000000000e+00  0.0000000000000000e+00  0.0000000000000000e+00  0.0000000000000000e+00  0.0000000000000000e+00  0.0000000000000000e+00  0.0000000000000000e+00  0.0000000000000000e+00  0.0000000000000000e+00  0.0000000000000000e+00  0.0000000000000000e+00  0.0000000000000000e+00  0.0000000000000000e+00  0.0000000000000000e+00  0.0000000000000000e+00  0.0000000000000000e+00  0.0000000000000000e+00  0.0000000000000000e+00  0.0000000000000000e+00  0.0000000000000000e+00  0.0000000000000000e+00  0.0000000000000000e+00  0.0000000000000000e+00  0.0000000000000000e+00  0.0000000000000000e+00  0.0000000000000000e+00  0.0000000000000000e+00  0.0000000000000000e+00  0.0000000000000000e+00  0.0000000000000000e+00  0.0000000000000000e+00  0.0000000000000000e+00  0.0000000000000000e+00  0.0000000000000000e+00  0.0000000000000000e+00  0.0000000000000000e+00  0.0000000000000000e+00  0.0000000000000000e+00  0.0000000000000000e+00  0.0000000000000000e+00  0.0000000000000000e+00  0.0000000000000000e+00  0.0000000000000000e+00  0.0000000000000000e+00  0.0000000000000000e+00  0.0000000000000000e+00  0.0000000000000000e+00  0.0000000000000000e+00  0.0000000000000000e+00  0.0000000000000000e+00  0.0000000000000000e+00  0.0000000000000000e+00  0.0000000000000000e+00  0.0000000000000000e+00  0.0000000000000000e+00  0.0000000000000000e+00  0.0000000000000000e+00  0.0000000000000000e+00  0.0000000000000000e+00  0.0000000000000000e+00  0.0000000000000000e+00  0.0000000000000000e+00  0.0000000000000000e+00  0.0000000000000000e+00  0.0000000000000000e+00  0.0000000000000000e+00  0.0000000000000000e+00  0.0000000000000000e+00  0.0000000000000000e+00  0.0000000000000000e+00  0.0000000000000000e+00  0.0000000000000000e+00  0.0000000000000000e+00  0.0000000000000000e+00  0.0000000000000000e+00  0.0000000000000000e+00  0.0000000000000000e+00  0.0000000000000000e+00  0.0000000000000000e+00  0.0000000000000000e+00  0.0000000000000000e+00  0.0000000000000000e+00  0.0000000000000000e+00  0.0000000000000000e+00  0.0000000000000000e+00  0.0000000000000000e+00  0.0000000000000000e+00  0.0000000000000000e+00  0.0000000000000000e+00  0.0000000000000000e+00  0.0000000000000000e+00  0.0000000000000000e+00  0.0000000000000000e+00  0.0000000000000000e+00  0.0000000000000000e+00  0.0000000000000000e+00  0.0000000000000000e+00  0.0000000000000000e+00  0.0000000000000000e+00  0.0000000000000000e+00  0.0000000000000000e+00  0.0000000000000000e+00  0.0000000000000000e+00  0.0000000000000000e+00  0.0000000000000000e+00  0.0000000000000000e+00  0.0000000000000000e+00  0.0000000000000000e+00  0.0000000000000000e+00  0.0000000000000000e+00  0.0000000000000000e+00  0.0000000000000000e+00  0.0000000000000000e+00  0.0000000000000000e+00  0.0000000000000000e+00  0.0000000000000000e+00  0.0000000000000000e+00  0.0000000000000000e+00  8.9975087351653182e-01  4.7636204414664195e-22  -9.2779911760846927e-23  2.3340748447794166e-21  -3.4293392984012434e-23  1.7996232346902080e-21  4.3522053277561563e-28  4.1145207125796539e-30  1.8159160346430813e-32  2.3226296317589996e-34  8.5148948196374305e-38  4.6286986299388761e-06  1.1531073496518490e-39  -6.3094092874517980e-38  -1.7057773919045565e-05  5.1050827861184248e-05  -1.1010591545034724e-40  3.3690992621556526e-43  -9.9692577246662347e-41  1.8802825937427112e-40  -4.1169701415479859e-46  3.8929706575983005e-42  2.8788721393817281e-42  4.5385374013472605e-14  3.7840720944933920e-14  3.3164567558907933e-02  -4.2543604299598532e-42  2.5507696507756974e-43  -5.7692850049374444e-45  -1.8178711125064259e-19  9.8979128572332206e-45  2.4907055168418542e-03  1.1483395054799682e-01  -2.4223423893546807e-21  -3.4908730554298518e-46  -1.1874365920995393e-45  3.1921955352391780e-48  9.8803214457753501e-48  7.3349598456531859e-49  -6.7624542487619263e-28  -3.0901192221463343e-27  1.1398258935600200e-25  1.0642767941802641e-24  1.9549523556747034e-01  -9.8599852613820827e-48  6.4007040904720512e-50  -2.9533701624596995e-50  4.3870181494128790e-47  -1.1631726558930044e-28  -3.0243568193206579e-28  -1.1174126202102788e-36  -4.3844795264456689e-27  -1.0658161060125536e-27  1.2183820696843776e-19  4.0755814825248872e-51  2.4715413668693520e-01  8.7687545577632639e-49  6.4149470661496732e-50  -1.5863987770274992e-08  -3.0868010523403970e-50  -2.6606329743046087e-52  2.5920927214860526e-35  -1.2543316045835342e-51  -2.1045155891940771e-49  3.3408127893418140e-08  3.7458003100682410e-02  2.1521118971624509e-13  3.4887762439250105e-19  -7.0795171369459282e-15  3.6290180570317521e-01  4.0390696655368426e-08  -5.7893433547785660e-29  8.7227120569268327e-33  -1.1568435242689144e-30  -4.9279334276201849e-32  4.4356535521590560e-11  -3.3112598707866684e-49  -5.1975064296437539e-16  2.6426350886686316e-10  1.2444121639710965e-35  -3.7342660081210013e-51  -5.0647100926529292e-15  3.9232810305462545e-55  -6.8873257895348675e-53  2.8617684576727381e-53  4.2558736555653975e-01  1.7424447804990847e-51  3.2900570114572533e-50  1.3560919081211346e-52  -2.3596218458972999e-13  2.3145399869926978e-37  4.0622814559870415e-54  -1.0313565765817603e-31  1.7422505684020123e-54  -2.2951807402604413e-36  2.2210681657691883e-01  -1.2240946287730866e-54  3.4518637441427612e-53  6.0060234666186359e-37  1.3684587207068391e-40  2.2500178454935521e-35  -1.0839908470209219e-35  1.4325252372162695e-53  -8.2983501427888238e-18  1.4533391922602109e-23  6.3665324350229209e-26  5.2319870783237203e-18  4.3692465483409916e-39  1.2417183958885700e-39  -1.9581412926611694e-52  -7.8346129543080757e-17  3.3604918763581628e-53  -2.8751723212118283e-53  1.1964677970034192e-31  -2.5954781812675220e-31  -1.3945583683355662e-37  -3.1019866992723029e-54  -6.0041964933395821e-53  2.8952970253434809e-54  3.6615226997317529e-01  1.5956215246403054e-17  1.0815599449276050e-41  -2.6717781049482880e-05  2.4473564103471056e-54  1.9241498231734322e-41  -6.1113165196269509e-38  9.5880316101686200e-54  1.4871557712218094e-56  1.3672865614290507e-40  1.3325616978997792e-42  3.9882266764036162e-37  -3.5619891997774351e-40  5.3047398584225852e-31  -1.2383508262093577e-19  -4.5081331040072135e-31  1.3432951910644407e-38  2.2044434692794592e-54  8.0591098302553138e-04  -1.7314895699532866e-13  1.3285575992998710e-07  5.9649421470383845e-01  1.1080941511609965e-03  2.3686368364691421e-45  2.7146174273474714e-17  -2.1234910431128080e-29  -1.2637601562650841e-42  2.0860061704659560e-44  1.7967532958762073e-06  1.8727005906805513e-01  5.5533795215838773e-33  5.7548757022059673e-55  -8.0416148638049047e-30  -1.6441275775370249e-12  2.7634194693741786e-44  -1.2363312455576879e-44  -2.5072239934516079e-50  1.1494559517404469e-56  -3.1146927466313193e-45  5.2858804863256244e-52  -2.7918742635515897e-54  3.5762786994780755e-54  8.7959219494620567e-42  3.5344546635522537e-37  1.7722247877455737e-57  -1.8930575645290546e-48  1.4215108716623774e-22  1.0448136531335938e-42  -6.9020076683428323e-55  -1.3773960729939994e-54  2.2118279568037077e-42  2.3741016964049538e-28  6.3796830765209045e-01  1.0233727755360232e-45  -2.6944300262213172e-13  -1.7221481369500835e-57  1.5377333919263636e-20  -2.8466191654533338e-56  -2.2377703825579678e-42  -3.6745881740709948e-58  3.5069366229421033e-22  -2.7046376120503779e-46  -7.3040930646935191e-24  -1.3347000126852488e-28  5.2556190720437948e-02  -5.7674001751911654e-53  -4.6089428793516846e-25  2.0490073717156342e-35  4.4030658028430593e-22  3.7111713416122529e-53  5.7667945240776403e-49  -4.6295624163121975e-54  1.9221987435780144e-01  -1.6395900194719432e-56  1.9946794049205352e-56  2.4493403867158241e-24  2.3449808349659247e-09  4.3873121285172226e-43  1.2195972603200554e-45  5.5582767468970093e-22  2.9322510971691130e-32  -9.0401093088790525e-28  1.1894614571807855e-28  -3.7415670355017956e-21  -8.9501477539081932e-34  -3.4267639595487344e-29  1.2609430180734331e-44  6.9724408988198836e-46  1.5962429659697821e-02  -1.7626236361213439e-51  5.8812658588485498e-47  2.4296223004656840e-39  1.5212154762093100e-01  6.6446840622058101e-01  -1.8175846891021346e-58  7.4195511187563096e-55  2.1170172013848321e-46  5.9617874619617332e-21  -1.3096454064283794e-56  -1.3450489830654443e-31  -3.3457487928895552e-34  2.3648627634638984e-52  -3.1833450844627153e-38  -1.3599515528793247e-14  -1.7835579815117850e-32  -4.5249741746384289e-35  -4.0869727483329958e-56  1.4160261352304435e-39  -3.3608488280308946e-57  -6.2820305508179270e-38  8.4731707286164013e-56  -4.2512571799198385e-56  2.7481885356434795e-57  -5.3905423022591006e-53  -5.3305105968612780e-48  4.4733588461314615e-60  8.9026628506465279e-19  -2.3281263316093453e-28  2.4666234350542043e-46  7.0487301296554981e-46  4.5772981458099722e-03  8.2074815888570056e-07  1.9414016952158028e-35  -6.0272424372556243e-32  -5.2304745072696455e-56  -4.1205003357637317e-21  1.0107178588353586e-54  1.9167094879581692e-58  4.8230290274298980e-57  3.0440053680715941e-11  2.7819855263236670e-19  5.0924864474389413e-26  1.9673391219685741e-26  1.3477449577207625e-04  6.6150167036751772e-01  2.3413434271938760e-47  1.4744680481673204e-14  1.2561424726576613e-44  -4.0313097834601538e-26  1.2263188913484038e-55  -5.2365103959314751e-57  3.7277691639753144e-54  -4.9760773720464312e-38  -8.3346889260322210e-48  -1.3714805448381669e-29  1.6365296389697621e-20  5.2086878126101083e-15  -2.8267098814522576e-47  -2.1050894646160404e-51  8.3068153865329887e-56  5.9110591786376356e-28  -6.4728870644945092e-56  4.4364801403877505e-13  4.8069969868207897e-21  -2.2774367717312839e-42  4.5411108084792418e-45  3.1263899435063539e-36  -5.9909754527981385e-10  -1.0763852988983342e-07  -1.6550095123767658e-13  -1.1370561055443669e-10  1.9298170973782923e-06  3.9288496323100983e-02  7.4472033195048679e-02  2.4464652901426395e-37  9.8411668559807804e-40  1.3421478264842740e-40  -2.9948521093873011e-08  -2.1352702757411338e-56  -9.7016536143460133e-47  8.8027306631026902e-16  6.3973737136991421e-02  1.7448209136652827e-19  -2.1695373933090660e-33  2.4079074634554626e-28  1.1841821841733076e-01  5.5723283280194785e-58  -1.2543529935092295e-27  -3.0507388639633039e-59  1.0215530251350093e-57  7.4160787356336423e-58  2.2889068468114765e-01  7.0373618946993255e-01  -1.9474952725769228e-08  1.4917217903916407e-02  7.3556505067379896e-37  -2.5426524774715840e-32  2.4572510835675203e-41  -1.3432991809646677e-29  -1.5067460505787144e-36  4.4850937241320917e-33  -2.2117523919792861e-24  -2.3126180652251527e-33  2.3052382282837074e-07  -1.7032378833140541e-42  7.4846952683101431e-02  3.1116147456933693e-02  9.9750724300668657e-29  -5.9099779298603040e-41  -3.6512711554693334e-39  -2.3168315581928061e-58  -4.7451703056255304e-47  9.5302722924150977e-43  -1.3058607943509500e-58  -9.7779947638308120e-12  4.5711040188469818e-58  -2.6654662619850386e-54  -2.1198440895010281e-49  3.1622094812032740e-17  -9.1387373356214587e-13  -4.9505928833127573e-05  3.3866182396903451e-58  2.6776943829130349e-39  6.4590996650040376e-34  5.6671085782670952e-23  9.4108059543265029e-10  1.7365418145121395e-41  -2.7586388672480935e-23  -4.1035196864428911e-12  3.4416568614131220e-02  -2.1006048649534134e-35  -2.4173113772547087e-49  -1.8060901514723470e-23  -4.5968771601344951e-52  -2.3468421364309271e-52  2.5238687592942254e-37  -1.0430850264462541e-57  9.1659354927827763e-47  7.7119684620938318e-46  8.9240480843613179e-57  -4.8632396924724621e-38  7.9418282513723384e-37  6.3502651409526549e-60  1.6352990681150732e-50  7.7660036958148181e-56  3.9787086864470438e-49  5.0328715926389127e-50  -6.9024474247386908e-26  7.4825938498684996e-01  1.6435760353586085e-48  2.3896895639406490e-01  1.2838059536465149e-01  2.8049553766841856e-41  7.4924577155860466e-60  -7.4329731216532538e-31  9.2341687661222224e-49  8.3457213608696252e-09  1.6740537304708512e-48  -2.7152120936188110e-37  5.3432769639450295e-01  -1.3639679724641940e-45  2.9027692076522529e-59  3.7447971542683938e-57  -2.7203152078470160e-49  -8.9196696287168061e-13  9.6746189138673755e-18  -1.2119324695237666e-41  2.7909678020186180e-57  3.2091330944091717e-01  7.3212926484176309e-31  -3.5412525223353745e-58  -3.0277751851603447e-23  1.8558246366881362e-58  -1.4056485587028275e-48  1.2576569430530425e-21  -7.7156749889233148e-61  4.1582068951173536e-02  2.0902097772364964e-61  -1.2994244962621942e-48  -1.4737310811191556e-57  1.2190388486771444e-15  1.4823583729158223e-28  1.6432476288061834e-36  4.2685150313006347e-30  -1.1347204485144298e-57  -4.0141602087799356e-48  1.0292130121952842e-15  2.8947684908369553e-55  7.9113643862242512e-31  1.0660516257783210e-41  7.9595258291497926e-59  1.2265282279789492e-58  -4.3041344360354334e-27  3.5140063209950626e-52  2.9566368074867292e-18  6.7268515585484153e-42  -2.0703352968684010e-25  -8.0355607512835428e-30  -5.7734600321487175e-57  -3.3540211699393058e-48  -1.7373669899198686e-46  7.3349906759838592e-51  -1.2232609806680032e-52  -1.5959940938196869e-17  -2.7773341995697695e-13  7.8772396139152850e-02  -2.4643960591669068e-13  -2.6450227313944497e-49  3.9862565436628175e-05  -4.8547318594185347e-20  1.3719127844821823e-48  -8.3530266500112089e-59  2.0253417059406431e-54  -1.6062378339110230e-29  1.4593126330219548e-36  1.5420627665522885e-43  8.3088195473679822e-15  -1.4778849908079497e-40  5.7549701891822566e-61  -1.1493265348838354e-58  -4.4782090711044252e-58  6.0930695244171714e-33  -1.4491352262640410e-49  8.3459134789701530e-44  3.6074763866573724e-52  -6.7581145759091038e-50  2.2315960668079601e-49  -1.6832174091231161e-29  -3.3985941382201959e-45  1.3838844787527225e-22  -4.1372568990752150e-31  -1.1212593911349976e-27  -7.8407298807394220e-30  6.0566570871926340e-24  4.4180160139697510e-16  -6.3220713772401077e-51  -1.9567662801315297e-17  -8.7002187544064163e-46  4.7609738172568666e-01  1.6560800616095213e-33  2.3770796657774707e-22  -8.5872604576070893e-24  2.0428899088618283e-15  9.9736565413879040e-52  1.0574707765110275e-58  1.7421290408828970e-57  1.6138581209557948e-04  5.6993343397076872e-38  -2.8680243839099621e-23  1.9808846422501361e-21  -1.2744197698749511e-51  2.6753998526845231e-31  2.4852456609248576e-54  4.9820769341467036e-02  -3.4389168909289196e-09  3.2765582668821221e-22  -5.4262040801227756e-44  2.2306418466304576e-49  5.5728267868069160e-53  -1.6802970226825081e-39  6.2729483518365869e-40  -1.3313236325712110e-30  2.6923835179240859e-49  -5.9259114458264226e-20  -2.5724556240745298e-24  8.9809981487230195e-47  5.5359447963444629e-02  9.7429103731081041e-37  -2.3446681202251581e-23  -1.0168429811691444e-38  -1.3403769601520873e-33  2.8764998189440852e-34  5.0138308209176668e-44  1.6953218640262506e-61  1.8514675787677830e-48  -1.2610425944552834e-59  -2.2053148279710835e-52  3.2867909232783494e-54  4.0596985977976270e-11  1.6432403277094679e-47  -1.9313033608284713e-30  2.0872521661566592e-42  -3.3881407646940537e-16  4.0396330838843365e-26  -1.0428969155208370e-09  5.7766485847893331e-55  -2.1501536479051054e-17  1.2563076033943343e-54  -3.9415650098726137e-59  -1.1802579913172322e-59  8.3622035330936341e-24  -3.6799153399653745e-53  1.1839465282564582e-58  -4.1629686466570894e-25  -8.5164333858249100e-28  1.4058785886963214e-33  2.4130558671234022e-42  -5.63528