<?xml version="1.0"?>
<VTKFile type="UnstructuredGrid"  version="0.1"  >
<UnstructuredGrid>
<Piece  NumberOfPoints="20054" NumberOfCells="39478">
<Points>
<DataArray  type="Float64"  NumberOfComponents="3"  format="ascii">1 0 0  0.9997998037428526 0.02000880895389431 0  0.9991992951284931 0.04000960653046352 0  0.9981987145960756 0.05999438456007805 0  0.9967984627705549 0.07995514128721501 0  0.9949991003022806 0.09988388457430118 0  0.9928013476425149 0.1197726351017051 0  0.9902060847549715 0.139613429562597 0  0.987214350763483 0.1593983238513969 0  0.9838273435359444 0.1791193962445356 0  0.9800464192046954 0.198768750572253 0  0.9758730916235354 0.2183385193801655 0  0.9713090317615876 0.237820867079336 0  0.9663560670342555 0.2572079930835849 0  0.9610161805715396 0.2764921349327862 0  0.9552915104240066 0.2956655714008991 0  0.9491843487067304 0.3147206255874884 0  0.9426971406815462 0.3336496679914983 0  0.9358324837779861 0.3524451195660473 0  0.9285931265532873 0.3710994547530225 0  0.9209819675918909 0.3896052044962556 0  0.9130020543448703 0.4079549592320781 0  0.9046565819097542 0.4261413718560547 0  0.8959488917512338 0.4441571606647087 0  0.8868824703632656 0.4619951122710622 0  0.8774609478731046 0.4796480844928215 0  0.8676880965878291 0.4971090092120542 0  0.8575678294839372 0.5143708952052096 0  0.8471041986406199 0.5314268309423539 0  0.8363013936173391 0.5482699873544935 0  0.8251637397763597 0.5648936205678837 0  0.8136956965509062 0.5812910746042258 0  0.8019018556596399 0.5974557840456699 0  0.7897869392681683 0.6133812766635599 0  0.777355798098326 0.6290611760098652 0  0.7646134094859813 0.6444892039702628 0  0.7515648753881492 0.6596591832778468 0  0.7382154203402046 0.6745650399864606 0  0.7245703893640189 0.6892008059026586 0  0.7106352458278521 0.7035606209753273 0  0.6964155692588616 0.7176387356420051 0  0.6819170531091018 0.7314295131309636 0  0.6671455024759069 0.7449274317181303 0  0.6521068317775753 0.7581270869379442 0  0.6368070623852795 0.7710231937472638 0  0.6212523202121545 0.7836105886414595 0  0.6054488332605282 0.795884231721841 0  0.5894029291282759 0.8078392087135958 0  0.5731210324752972 0.8194707329334278 0  0.5566096624511305 0.8307741472061095 0  0.5398754300847343 0.8417449257291802 0  0.5229250356374803 0.8523786758850435 0  0.5057652659204196 0.8626711399997378 0  0.4884029915768944 0.8726181970476778 0  0.4708451643315825 0.8822158643016828 0  0.45309881420708 0.8914602989276292 0  0.4351710467091336 0.9003477995230937 0  0.4170690399816468 0.9088748075993677 0  0.398800041932607 0.9170379090062476 0  0.3803713673320772 0.9248338352990368 0  0.3617903948834157 0.9322594650472057 0  0.3430645642688987 0.9393118250841893 0  0.3242013731709288 0.9459880916978206 0  0.3052083742700172 0.952285591760924 0  0.2860931722207478 0.9582018038016155 0  0.2668634206069304 0.963734359012881 0  0.2475268188771628 0.9688810422010291 0  0.2280911092620296 0.9736397926726377 0  0.2085640736741707 0.9780087050596407 0  0.1889535305924618 0.9819860300822225 0  0.1692673319315541 0.9855701752492174 0  0.1495133598980264 0.9887597054957302 0  0.1296995238344084 0.9915533437577263 0  0.1098337570523395 0.9939499714833577 0  0.08992401365612977 0.9959486290808237 0  0.06997826535799723 0.9975485163025836 0  0.05000449828625179 0.9987489925657699 0  0.03001070978771124 0.9995495772086734 0  0.01000490522562346 0.9999499496831961 0  -0.01000490522562333 0.9999499496831961 0  -0.03001070978771133 0.9995495772086734 0  -0.05000449828625144 0.9987489925657699 0  -0.06997826535799688 0.9975485163025836 0  -0.08992401365612987 0.9959486290808237 0  -0.1098337570523394 0.9939499714833577 0  -0.1296995238344082 0.9915533437577263 0  -0.1495133598980262 0.9887597054957303 0  -0.1692673319315537 0.9855701752492174 0  -0.1889535305924614 0.9819860300822226 0  -0.2085640736741705 0.9780087050596407 0  -0.2280911092620295 0.9736397926726377 0  -0.2475268188771627 0.9688810422010291 0  -0.2668634206069302 0.9637343590128811 0  -0.2860931722207475 0.9582018038016156 0  -0.3052083742700173 0.9522855917609239 0  -0.3242013731709289 0.9459880916978205 0  -0.3430645642688986 0.9393118250841894 0  -0.3617903948834154 0.9322594650472058 0  -0.380371367332077 0.924833835299037 0  -0.3988000419326071 0.9170379090062476 0  -0.4170690399816465 0.9088748075993678 0  -0.4351710467091335 0.9003477995230939 0  -0.4530988142070799 0.8914602989276292 0  -0.4708451643315824 0.8822158643016829 0  -0.4884029915768945 0.8726181970476778 0  -0.5057652659204197 0.8626711399997378 0  -0.5229250356374801 0.8523786758850437 0  -0.5398754300847342 0.8417449257291804 0  -0.5566096624511303 0.8307741472061098 0  -0.5731210324752971 0.8194707329334279 0  -0.589402929128276 0.8078392087135957 0  -0.6054488332605281 0.7958842317218411 0  -0.6212523202121542 0.7836105886414597 0  -0.6368070623852793 0.7710231937472639 0  -0.652106831777575 0.7581270869379444 0  -0.6671455024759069 0.7449274317181304 0  -0.6819170531091018 0.7314295131309636 0  -0.6964155692588616 0.7176387356420052 0  -0.7106352458278521 0.7035606209753273 0  -0.7245703893640187 0.6892008059026588 0  -0.7382154203402043 0.6745650399864608 0  -0.751564875388149 0.6596591832778469 0  -0.7646134094859813 0.6444892039702628 0  -0.7773557980983258 0.6290611760098654 0  -0.7897869392681683 0.6133812766635599 0  -0.8019018556596398 0.59745578404567 0  -0.8136956965509062 0.5812910746042258 0  -0.8251637397763595 0.5648936205678839 0  -0.836301393617339 0.5482699873544935 0  -0.8471041986406197 0.5314268309423542 0  -0.8575678294839372 0.5143708952052097 0  -0.8676880965878292 0.497109009212054 0  -0.8774609478731045 0.4796480844928216 0  -0.8868824703632656 0.4619951122710621 0  -0.8959488917512338 0.4441571606647088 0  -0.904656581909754 0.426141371856055 0  -0.9130020543448703 0.4079549592320783 0  -0.920981967591891 0.3896052044962555 0  -0.9285931265532872 0.3710994547530226 0  -0.9358324837779861 0.3524451195660473 0  -0.9426971406815462 0.3336496679914984 0  -0.9491843487067303 0.3147206255874888 0  -0.9552915104240065 0.2956655714008993 0  -0.9610161805715396 0.2764921349327862 0  -0.9663560670342555 0.2572079930835851 0  -0.9713090317615876 0.2378208670793361 0  -0.9758730916235353 0.2183385193801658 0  -0.9800464192046954 0.198768750572253 0  -0.9838273435359444 0.1791193962445354 0  -0.987214350763483 0.159398323851397 0  -0.9902060847549714 0.1396134295625972 0  -0.9928013476425149 0.1197726351017052 0  -0.9949991003022804 0.09988388457430147 0  -0.9967984627705549 0.07995514128721509 0  -0.9981987145960756 0.05999438456007793 0  -0.9991992951284931 0.04000960653046362 0  -0.9997998037428526 0.02000880895389464 0  -1 1.224646799147353e-16 0  -0.9997998037428526 -0.0200088089538944 0  -0.9991992951284931 -0.04000960653046338 0  -0.9981987145960756 -0.05999438456007812 0  -0.9967984627705549 -0.07995514128721484 0  -0.9949991003022806 -0.09988388457430078 0  -0.9928013476425149 -0.1197726351017049 0  -0.9902060847549715 -0.1396134295625965 0  -0.9872143507634831 -0.1593983238513963 0  -0.9838273435359444 -0.1791193962445356 0  -0.9800464192046953 -0.1987687505722532 0  -0.9758730916235354 -0.2183385193801655 0  -0.9713090317615876 -0.2378208670793363 0  -0.9663560670342556 -0.2572079930835848 0  -0.9610161805715396 -0.276492134932786 0  -0.9552915104240066 -0.2956655714008991 0  -0.9491843487067305 -0.3147206255874881 0  -0.9426971406815464 -0.3336496679914978 0  -0.9358324837779862 -0.3524451195660471 0  -0.9285931265532875 -0.371099454753022 0  -0.9209819675918909 -0.3896052044962557 0  -0.9130020543448704 -0.407954959232078 0  -0.9046565819097541 -0.4261413718560548 0  -0.8959488917512338 -0.4441571606647086 0  -0.8868824703632655 -0.4619951122710623 0  -0.8774609478731046 -0.4796480844928214 0  -0.8676880965878293 -0.4971090092120538 0  -0.8575678294839373 -0.5143708952052095 0  -0.84710419864062 -0.5314268309423537 0  -0.8363013936173395 -0.5482699873544929 0  -0.8251637397763596 -0.5648936205678838 0  -0.8136956965509061 -0.5812910746042259 0  -0.8019018556596399 -0.5974557840456699 0  -0.7897869392681682 -0.61338127666356 0  -0.777355798098326 -0.6290611760098652 0  -0.7646134094859816 -0.6444892039702625 0  -0.7515648753881492 -0.6596591832778468 0  -0.7382154203402048 -0.6745650399864603 0  -0.7245703893640192 -0.6892008059026583 0  -0.7106352458278522 -0.7035606209753272 0  -0.6964155692588621 -0.7176387356420046 0  -0.6819170531091017 -0.7314295131309637 0  -0.667145502475907 -0.7449274317181303 0  -0.6521068317775756 -0.758127086937944 0  -0.6368070623852792 -0.7710231937472641 0  -0.6212523202121544 -0.7836105886414596 0  -0.6054488332605283 -0.795884231721841 0  -0.5894029291282762 -0.8078392087135956 0  -0.5731210324752977 -0.8194707329334274 0  -0.5566096624511304 -0.8307741472061095 0  -0.5398754300847344 -0.8417449257291802 0  -0.5229250356374798 -0.8523786758850437 0  -0.5057652659204195 -0.8626711399997379 0  -0.4884029915768943 -0.872618197047678 0  -0.4708451643315825 -0.8822158643016828 0  -0.4530988142070805 -0.8914602989276289 0  -0.4351710467091333 -0.900347799523094 0  -0.4170690399816467 -0.9088748075993677 0  -0.3988000419326073 -0.9170379090062475 0  -0.3803713673320777 -0.9248338352990366 0  -0.3617903948834162 -0.9322594650472055 0  -0.3430645642688988 -0.9393118250841893 0  -0.3242013731709283 -0.9459880916978207 0  -0.3052083742700169 -0.9522855917609241 0  -0.2860931722207477 -0.9582018038016155 0  -0.2668634206069305 -0.963734359012881 0  -0.2475268188771631 -0.968881042201029 0  -0.2280911092620301 -0.9736397926726376 0  -0.2085640736741706 -0.9780087050596407 0  -0.1889535305924619 -0.9819860300822225 0  -0.1692673319315544 -0.9855701752492173 0  -0.1495133598980269 -0.9887597054957302 0  -0.1296995238344092 -0.9915533437577262 0  -0.1098337570523396 -0.9939499714833577 0  -0.08992401365612945 -0.9959486290808237 0  -0.06997826535799691 -0.9975485163025836 0  -0.05000449828625168 -0.9987489925657699 0  -0.030010709787
[...]
<PointData  Scalars="Displacement"> 
<DataArray  type="Float64"  Name="Displacement"  format="ascii">0.0000000000000000e+00  0.0000000000000000e+00  0.0000000000000000e+00  0.0000000000000000e+00  0.0000000000000000e+00  0.0000000000000000e+00  0.0000000000000000e+00  0.0000000000000000e+00  0.0000000000000000e+00  0.0000000000000000e+00  0.0000000000000000e+00  0.0000000000000000e+00  0.0000000000000000e+00  0.0000000000000000e+00  0.0000000000000000e+00  0.0000000000000000e+00  0.0000000000000000e+00  0.0000000000000000e+00  0.0000000000000000e+00  0.0000000000000000e+00  0.0000000000000000e+00  0.0000000000000000e+00  0.0000000000000000e+00  0.0000000000000000e+00  0.0000000000000000e+00  0.0000000000000000e+00  0.0000000000000000e+00  0.0000000000000000e+00  0.0000000000000000e+00  0.0000000000000000e+00  0.0000000000000000e+00  0.0000000000000000e+00  0.0000000000000000e+00  0.0000000000000000e+00  0.0000000000000000e+00  0.0000000000000000e+00  0.0000000000000000e+00  0.0000000000000000e+00  0.0000000000000000e+00  0.0000000000000000e+00  0.0000000000000000e+00  0.0000000000000000e+00  0.0000000000000000e+00  0.0000000000000000e+00  0.0000000000000000e+00  0.0000000000000000e+00  0.0000000000000000e+00  0.0000000000000000e+00  0.0000000000000000e+00  0.0000000000000000e+00  0.0000000000000000e+00  0.0000000000000000e+00  0.0000000000000000e+00  0.0000000000000000e+00  0.0000000000000000e+00  0.0000000000000000e+00  0.0000000000000000e+00  0.0000000000000000e+00  0.0000000000000000e+00  0.0000000000000000e+00  0.0000000000000000e+00  0.0000000000000000e+00  0.0000000000000000e+00  0.0000000000000000e+00  0.0000000000000000e+00  0.0000000000000000e+00  0.0000000000000000e+00  0.0000000000000000e+00  0.0000000000000000e+00  0.0000000000000000e+00  0.0000000000000000e+00  0.0000000000000000e+00  0.0000000000000000e+00  0.0000000000000000e+00  0.0000000000000000e+00  0.0000000000000000e+00  0.0000000000000000e+00  0.0000000000000000e+00  0.0000000000000000e+00  0.0000000000000000e+00  0.0000000000000000e+00  0.0000000000000000e+00  0.0000000000000000e+00  0.0000000000000000e+00  0.0000000000000000e+00  0.0000000000000000e+00  0.0000000000000000e+00  0.0000000000000000e+00  0.0000000000000000e+00  0.0000000000000000e+00  0.0000000000000000e+00  0.0000000000000000e+00  0.0000000000000000e+00  0.0000000000000000e+00  0.0000000000000000e+00  0.0000000000000000e+00  0.0000000000000000e+00  0.0000000000000000e+00  0.0000000000000000e+00  0.0000000000000000e+00  0.0000000000000000e+00  0.0000000000000000e+00  0.0000000000000000e+00  0.0000000000000000e+00  0.0000000000000000e+00  0.0000000000000000e+00  0.0000000000000000e+00  0.0000000000000000e+00  0.0000000000000000e+00  0.0000000000000000e+00  0.0000000000000000e+00  0.0000000000000000e+00  0.0000000000000000e+00  0.0000000000000000e+00  0.0000000000000000e+00  0.0000000000000000e+00  0.0000000000000000e+00  0.0000000000000000e+00  0.0000000000000000e+00  0.0000000000000000e+00  0.0000000000000000e+00  0.0000000000000000e+00  0.0000000000000000e+00  0.0000000000000000e+00  0.0000000000000000e+00  0.0000000000000000e+00  0.0000000000000000e+00  0.0000000000000000e+00  0.0000000000000000e+00  0.0000000000000000e+00  0.0000000000000000e+00  0.0000000000000000e+00  0.0000000000000000e+00  0.0000000000000000e+00  0.0000000000000000e+00  0.0000000000000000e+00  0.0000000000000000e+00  0.0000000000000000e+00  0.0000000000000000e+00  0.0000000000000000e+00  0.0000000000000000e+00  0.0000000000000000e+00  0.0000000000000000e+00  0.0000000000000000e+00  0.0000000000000000e+00  0.0000000000000000e+00  0.0000000000000000e+00  0.0000000000000000e+00  0.0000000000000000e+00  0.0000000000000000e+00  0.0000000000000000e+00  0.0000000000000000e+00  0.0000000000000000e+00  0.0000000000000000e+00  0.0000000000000000e+00  0.0000000000000000e+00  0.0000000000000000e+00  0.0000000000000000e+00  0.0000000000000000e+00  0.0000000000000000e+00  0.0000000000000000e+00  0.0000000000000000e+00  0.0000000000000000e+00  0.0000000000000000e+00  0.0000000000000000e+00  0.0000000000000000e+00  0.0000000000000000e+00  0.0000000000000000e+00  0.0000000000000000e+00  0.0000000000000000e+00  0.0000000000000000e+00  0.0000000000000000e+00  0.0000000000000000e+00  0.0000000000000000e+00  0.0000000000000000e+00  0.0000000000000000e+00  0.0000000000000000e+00  0.0000000000000000e+00  0.0000000000000000e+00  0.0000000000000000e+00  0.0000000000000000e+00  0.0000000000000000e+00  0.0000000000000000e+00  0.0000000000000000e+00  0.0000000000000000e+00  0.0000000000000000e+00  0.0000000000000000e+00  0.0000000000000000e+00  0.0000000000000000e+00  0.0000000000000000e+00  0.0000000000000000e+00  0.0000000000000000e+00  0.0000000000000000e+00  0.0000000000000000e+00  0.0000000000000000e+00  0.0000000000000000e+00  0.0000000000000000e+00  0.0000000000000000e+00  0.0000000000000000e+00  0.0000000000000000e+00  0.0000000000000000e+00  0.0000000000000000e+00  0.0000000000000000e+00  0.0000000000000000e+00  0.0000000000000000e+00  0.0000000000000000e+00  0.0000000000000000e+00  0.0000000000000000e+00  0.0000000000000000e+00  0.0000000000000000e+00  0.0000000000000000e+00  0.0000000000000000e+00  0.0000000000000000e+00  0.0000000000000000e+00  0.0000000000000000e+00  0.0000000000000000e+00  0.0000000000000000e+00  0.0000000000000000e+00  0.0000000000000000e+00  0.0000000000000000e+00  0.0000000000000000e+00  0.0000000000000000e+00  0.0000000000000000e+00  0.0000000000000000e+00  0.0000000000000000e+00  0.0000000000000000e+00  0.0000000000000000e+00  0.0000000000000000e+00  0.0000000000000000e+00  0.0000000000000000e+00  0.0000000000000000e+00  0.0000000000000000e+00  0.0000000000000000e+00  0.0000000000000000e+00  0.0000000000000000e+00  0.0000000000000000e+00  0.0000000000000000e+00  0.0000000000000000e+00  0.0000000000000000e+00  0.0000000000000000e+00  0.0000000000000000e+00  0.0000000000000000e+00  0.0000000000000000e+00  0.0000000000000000e+00  0.0000000000000000e+00  0.0000000000000000e+00  0.0000000000000000e+00  0.0000000000000000e+00  0.0000000000000000e+00  0.0000000000000000e+00  0.0000000000000000e+00  0.0000000000000000e+00  0.0000000000000000e+00  0.0000000000000000e+00  0.0000000000000000e+00  0.0000000000000000e+00  0.0000000000000000e+00  0.0000000000000000e+00  0.0000000000000000e+00  0.0000000000000000e+00  0.0000000000000000e+00  0.0000000000000000e+00  0.0000000000000000e+00  0.0000000000000000e+00  0.0000000000000000e+00  0.0000000000000000e+00  0.0000000000000000e+00  0.0000000000000000e+00  0.0000000000000000e+00  0.0000000000000000e+00  0.0000000000000000e+00  0.0000000000000000e+00  0.0000000000000000e+00  0.0000000000000000e+00  0.0000000000000000e+00  0.0000000000000000e+00  0.0000000000000000e+00  0.0000000000000000e+00  0.0000000000000000e+00  0.0000000000000000e+00  0.0000000000000000e+00  0.0000000000000000e+00  0.0000000000000000e+00  0.0000000000000000e+00  0.0000000000000000e+00  0.0000000000000000e+00  0.0000000000000000e+00  0.0000000000000000e+00  0.0000000000000000e+00  0.0000000000000000e+00  0.0000000000000000e+00  0.0000000000000000e+00  0.0000000000000000e+00  0.0000000000000000e+00  0.0000000000000000e+00  0.0000000000000000e+00  0.0000000000000000e+00  0.0000000000000000e+00  0.0000000000000000e+00  0.0000000000000000e+00  0.0000000000000000e+00  0.0000000000000000e+00  0.0000000000000000e+00  0.0000000000000000e+00  0.0000000000000000e+00  0.0000000000000000e+00  0.0000000000000000e+00  0.0000000000000000e+00  0.0000000000000000e+00  0.0000000000000000e+00  0.0000000000000000e+00  0.0000000000000000e+00  0.0000000000000000e+00  0.0000000000000000e+00  -5.9464244161525702e+208  8.3044344678854102e+204  1.0654784584349426e+204  -4.4156521096896722e+208  -1.7381535715718642e+204  -8.7070518530854468e+207  2.9130686988545261e+203  1.1398610198904126e+201  4.8235315714661041e+202  -2.8427998790489928e+200  7.8245593669381667e+201  -4.1374090823585366e+209  -4.9764091663286162e+203  -6.5704008949873015e+199  -2.8582047562371253e+206  -2.0405161751354927e+209  3.0151622389332491e+200  1.9361566495284697e+201  -6.1768712849870484e+198  9.2620108659587367e+201  5.2635134064659011e+197  -1.2119540192422099e+199  1.2115248019194956e+198  -5.2400001865389687e+206  1.3811613961104586e+210  -1.5734695612638404e+207  -1.4803847693385644e+200  -5.2183361213074977e+199  2.1363121811001978e+201  3.6248569490871921e+206  -2.5258928217167610e+196  -9.4782995671551423e+209  -7.1240499262281291e+210  -1.0094780919016111e+211  -4.4583007992854867e+198  1.3342739627189094e+197  1.6641761965323505e+196  -4.7711971886960394e+197  -2.0479219251949366e+199  9.8461296422135157e+204  -1.8953299691786610e+206  -1.4489443859248516e+201  2.4839600120997328e+204  -1.1168820397431031e+210  -3.8025122324702352e+196  -1.1965926710581667e+196  4.2562811420635998e+196  -2.5535448662430138e+196  4.1147458294473430e+203  4.9561129964215457e+202  3.3603119841122695e+204  7.5225628326944539e+201  -4.7375751769127001e+204  3.4062128232816869e+207  -8.2723508551353031e+200  7.0685382638959354e+206  -2.4744755970663138e+197  -1.1588433439158588e+199  2.7449446905487874e+208  -1.4524685995686587e+200  -7.0528179562957742e+198  -2.4443422331827775e+200  2.5126906084771521e+194  -1.8539319856127415e+195  5.2969255208200363e+207  1.4927707647797370e+207  1.7928812119149848e+210  6.0474223913666788e+205  3.2294303498323256e+209  6.2002264713221368e+206  1.1122055706920668e+209  -2.1286328752439088e+203  -9.4939824727182238e+205  6.0785795668281032e+202  2.9450451779900456e+204  3.3211104536363522e+205  -4.2940479776603882e+197  -1.4932254337139158e+208  -5.4500196798058220e+208  -7.7533535845927150e+199  1.8814520446407787e+198  -7.2629842370355117e+204  1.2710539923898867e+198  -2.4307181146122770e+194  -4.1790752828360517e+195  -7.9724623651754660e+210  -3.7823995399647628e+196  -9.1181147014648667e+196  4.5764815881622205e+195  -1.9357632107953938e+207  1.6370247648955816e+200  2.6171575705315430e+196  -4.1852782951674147e+203  -6.7591719180040185e+194  2.3329064943140917e+201  7.0602648179931112e+211  6.6744641404053274e+196  -6.1583709109457843e+195  -2.4768492457460249e+199  -4.2685467252418644e+198  5.0375913473140113e+201  -5.2300393770399382e+201  -1.6401659894107128e+196  5.8130588388475102e+206  -2.5043744333325731e+204  6.5385239420948861e+203  -1.2776589395549664e+207  -9.1724769898427650e+200  1.6549823188150152e+201  1.2486924221015185e+197  -6.8947659590100843e+206  -4.0515033705481770e+201  -3.8858446686132078e+194  3.4669857061725789e+204  6.8110434110547510e+205  -1.0325015179366958e+198  7.3858401259742860e+196  -5.6416933126836738e+195  4.0485436401065812e+192  1.4070716311121473e+208  4.4777112570027071e+206  -2.5128737537528232e+199  1.9383692276167682e+211  1.7832101854688968e+198  5.4174098156135890e+202  2.3866320362578721e+202  3.5204357012621435e+194  1.0717666294614387e+195  3.6774864386469672e+200  -7.1081552459606577e+202  9.7014396595885383e+200  1.8288657113068896e+200  -4.4688472466651502e+203  9.4131672668919495e+205  -1.2184877728939623e+201  -1.0511860420390405e+199  -1.0811059434083744e+196  -6.7464588082941005e+213  -2.3806703268221728e+207  -2.5855745996716584e+206  3.1093264530960006e+208  -7.6388237432988484e+212  2.0170926112418157e+198  -1.8639759284024979e+211  -2.2865892681996753e+203  -1.7359665349905973e+198  -9.9053057213816755e+197  7.5494411142826513e+205  2.8590965434080758e+208  2.6331266331172015e+200  5.9905568719293797e+194  -3.2841536903100531e+206  3.5158617707789083e+211  -1.3380584312817914e+196  -1.2947859296698772e+199  -6.7188879311953654e+194  -8.6719109351730267e+193  2.0021013269958330e+199  -1.8075650635956587e+196  3.2299574648140801e+194  3.2905798926805012e+194  8.8175640577778904e+198  -1.4679847570793871e+204  6.9665474385947845e+196  1.8437936792630315e+200  3.0910460054137303e+206  9.0466340575297885e+201  -5.6582346509366400e+194  2.1793085813967386e+194  2.5013058887207584e+198  3.7606097002965784e+203  -1.7345087505028761e+207  -7.9234748821169057e+197  2.8606921225515507e+208  -7.4504888334738157e+194  3.4523540413080659e+203  -6.2349645011135098e+194  9.1770176140008382e+198  6.2950326087312356e+193  1.2553072936352329e+203  -3.7415303801225844e+198  -2.3606075404042445e+206  -6.3880618773399101e+201  -9.2508393814705142e+209  -2.9862725773282555e+194  1.7983817324441282e+203  -3.8392121083710527e+201  -1.2905143488907814e+205  4.7078828645291954e+194  -8.1279936855370494e+196  -8.5935366759599774e+196  -3.1967633343643465e+210  -2.2813661383618721e+194  5.1491133352983591e+197  -9.1178204631907219e+208  6.2531919895311543e+209  1.7508494370852758e+199  -1.4346451883307263e+199  6.6837166759252193e+206  7.8284884801785118e+202  -7.2546790212191845e+203  -7.9799252751765938e+202  -1.9386660551258135e+205  -6.1388189573931947e+200  -1.1189053187310491e+202  -7.5509505026123391e+197  -5.6067897928576462e+197  3.4596231816501042e+207  -1.1059186960930611e+198  -2.8431579984272347e+198  -3.2261492718620230e+198  -7.0285834318096885e+206  -6.8038391099754748e+205  9.8396952890600310e+198  1.0286654139528197e+193  3.5676613296908919e+201  1.4794077955889630e+208  9.8224944742653642e+197  1.8939308562130355e+201  3.1281668567157164e+200  -7.4079542301691343e+196  4.4946775257837694e+203  9.4010544978518736e+206  -7.9082863491094705e+201  -1.9631007736386194e+202  -1.0910622507059647e+196  5.3268048589062089e+198  6.0202118265233674e+194  -2.7224948345520245e+199  3.4649325046106644e+193  3.6221739354359956e+195  -9.9057204687113751e+195  2.0574033198196438e+196  7.0043567935797827e+198  -5.0385814462104598e+196  5.2742436771995587e+204  8.3761270505657439e+201  4.3145219996949072e+200  1.3534715129973207e+198  -2.4052327818964540e+208  -2.5064655888650922e+207  -7.7050462270655074e+201  1.9504230189140789e+203  -1.7071880127237415e+196  3.6218409030112390e+206  3.8700331632916485e+201  1.0259364383658433e+196  4.7883273150118304e+193  7.8852364734859827e+207  -8.1959051655614648e+204  -1.9170848284166074e+204  2.7276246486571825e+202  4.2196812030679875e+210  -5.0530640788228123e+208  -6.4149635624891428e+196  2.3890468375148010e+208  -1.3255194882283218e+202  1.8121855631462771e+204  -2.3784164743518437e+195  8.5030821776964261e+194  8.2653909558274331e+193  1.6742062835237455e+200  2.5115067063273519e+199  -1.1376245023171571e+207  7.2464273223836612e+206  -3.0034152801844404e+209  1.3183357645946647e+196  -3.1570435160092954e+195  5.8827379808152385e+192  8.7461003614338948e+202  1.0949850554467635e+194  1.7854841395738759e+209  -1.5073311032230694e+207  -1.9074226752236720e+199  -3.8632766751444684e+196  -2.1231486240636612e+199  -1.5409030152801578e+212  -3.8773094217632419e+207  -3.5973931751896263e+206  -4.8441386278829128e+205  6.1349847743903576e+205  -1.5917295207479515e+208  1.1410283839804839e+208  -2.0195482618762655e+205  2.8804998748855220e+202  -2.3282393876942119e+199  -6.6203116782637320e+211  -7.8541075136985168e+194  -7.9239434097028273e+198  -5.8176785950431341e+207  -1.2020700536786865e+209  -3.1563201696603419e+207  -6.4877826989835766e+201  4.9186208313248009e+201  -8.5361109183806574e+211  -9.2138135930807517e+193  -1.2325644529136326e+209  3.9126385058236414e+195  -2.1167813897056876e+192  -6.0111933912092546e+193  7.7533332179827438e+206  -3.4413002400653604e+206  -1.1875717282039797e+210  -2.9198540723758966e+210  -3.3683888390089996e+204  -7.3995687318578070e+199  3.1855303767770940e+200  8.0506533791917699e+204  2.9581424505166307e+205  -1.7934664691763393e+201  -4.4431224688241311e+205  3.5208872419338890e+202  8.6513768408506157e+207  1.7119272090048748e+197  -4.7553885207695125e+206  6.9899523458330742e+206  5.6781971966799668e+205  -3.7294841813502549e+198  4.1782784710869611e+198  1.4002790513895565e+196  -4.0805303145650921e+196  1.6185017348059275e+197  2.7436382198243340e+196  -1.5077062393517247e+209  5.5383476670292471e+193  -1.9550574003744578e+194  -1.5840547966603838e+195  -3.7051267020970847e+206  -2.0388871796592042e+204  8.1123888475923306e+206  -2.6562893775471871e+195  -2.1339929723379767e+199  -5.3145038743089867e+201  1.9257875012622542e+206  -6.1584726787808777e+206  1.5645901980121581e+200  1.1429020770778963e+206  2.3189752927303466e+206  -5.5911802701012828e+212  1.3185994189895460e+200  -1.8184907562662339e+199  5.1747245219120790e+205  3.3558969370517509e+197  2.1988680754694599e+194  -2.8723337013930809e+203  4.0249928711204347e+194  -8.4400553736876729e+197  3.2136470150852877e+201  -4.1075260337638782e+193  1.3914833799922373e+200  -8.6178438720027005e+199  -4.1364933480456324e+194  -2.1083285418813592e+197  7.0927762020805087e+194  5.6611620429568563e+195  8.2975693803288077e+198  -1.0855507516754013e+202  -9.1850454509663410e+209  3.1319878409005298e+196  6.9575119357118504e+207  1.0921384518998529e+210  4.0582998577933954e+198  1.8850060768837524e+194  -8.4443130250804329e+202  -1.8525492012363742e+198  -1.3507235670053918e+211  4.0625338119157549e+197  5.1834217528228788e+197  -2.6177727837199831e+207  1.6468554524336880e+196  -9.8807722206361966e+191  -1.3988451094062911e+195  -5.7613354734892548e+199  1.3225152844869679e+206  1.3298748919489282e+205  -2.0081912837457058e+198  -6.4430628295629047e+198  2.2293454443238248e+210  -8.7201481451412998e+201  3.8053683645712559e+194  2.3603570828736460e+204  7.4055825559732870e+194  -4.7134644510851432e+196  1.0472955113695322e+205  -1.2500097814450498e+195  3.1881619105124023e+212  -1.0995751752492960e+193  1.4517932116643664e+197  -1.0925946259423283e+194  -8.2032601228104040e+205  3.7035035572646101e+202  3.8092642437346509e+200  6.0540823232895247e+203  3.5371608316096712e+192  -2.9441384211520831e+197  -8.9076058227742553e+205  3.5647474887254886e+199  3.1830436379549869e+204  1.2082014044796643e+200  -2.9326419687448287e+192  -1.6352340062112943e+194  5.2118520893656031e+205  -1.0816738129266438e+195  3.3483267266474920e+206  -5.9288723812254918e+198  -7.2184025971732478e+208  9.7288729058189621e+200  2.9234176160856346e+195  1.8397314603875647e+197  -1.3377056661290691e+197  1.5005232219206168e+196  -2.2964959123355305e+197  -1.5854788411996285e+208  -4.1891629516759711e+209  -3.3990884981647344e+212  -1.5372343316956262e+208  2.9074030347496422e+197  -6.7922603033396597e+210  5.7328953018076556e+207  1.5768746274873138e+198  -2.6930278167771061e+191  4.4260050762425275e+193  -3.9009004565150992e+200  6.8741275345406116e+200  3.7087473912308542e+200  -1.1027758922946867e+208  1.2620272278042804e+200  2.7019946989486538e+194  -6.1482394757298445e+192  -3.4671109071780419e+195  3.1028007398717663e+202  1.9664740733004182e+196  -4.3941183699905940e+201  3.7021594704523154e+195  -4.1668056715414962e+195  9.2380317096805131e+196  6.8525762442607623e+202  -2.0004660326434281e+197  2.7721389793205320e+204  -2.6070651946689027e+204  1.0363636568663456e+205  2.9483865557861646e+202  1.3140388751239610e+204  -6.6572060619609106e+205  -2.1602552268410884e+196  -6.3495547317968965e+209  -9.6358809141383270e+197  2.7213236706481888e+210  -1.3697780592563077e+201  5.7398315647085433e+206  -5.3549139485708946e+205  -3.0857407922448009e+213  6.7236397173314293e+196  -8.1654576944292730e+193  8.8636502954401767e+199  -2.5385335106050794e+208  -9.3869495071845875e+199  8.8757034376823864e+204  -4.8029434692129955e+205  -8.3636029637958836e+195  4.1321743408006441e+201  1.0337346686603950e+195  -4.9621423730687370e+211  -5.5132700205875985e+211  -2.2487143664897061e+210  2.8452521208588889e+199  9.8239733120736067e+196  1.8099036658156044e+197  -5.3574303058271745e+198  -3.0642528720392280e+203  2.5026244453095254e+205  -2.7627110236130963e+197  6.4317545436587091e+205  -2.6857040839239089e+202  9.7863074706694134e+198  1.6291109674287596e+211  9.7608579290792429e+200  -6.8952582516982555e+204  -6.8110220629062606e+199  -1.4115586076044539e+203  4.1728361952466491e+200  -3.0019154215728772e+199  -3.6091465677905868e+194  -1.9331069425381380e+200  -4.368672130