<?xml version="1.0"?>
<VTKFile type="UnstructuredGrid"  version="0.1"  >
<UnstructuredGrid>
<Piece  NumberOfPoints="20054" NumberOfCells="39478">
<Points>
<DataArray  type="Float64"  NumberOfComponents="3"  format="ascii">1 0 0  0.9997998037428526 0.02000880895389431 0  0.9991992951284931 0.04000960653046352 0  0.9981987145960756 0.05999438456007805 0  0.9967984627705549 0.07995514128721501 0  0.9949991003022806 0.09988388457430118 0  0.9928013476425149 0.1197726351017051 0  0.9902060847549715 0.139613429562597 0  0.987214350763483 0.1593983238513969 0  0.9838273435359444 0.1791193962445356 0  0.9800464192046954 0.198768750572253 0  0.9758730916235354 0.2183385193801655 0  0.9713090317615876 0.237820867079336 0  0.9663560670342555 0.2572079930835849 0  0.9610161805715396 0.2764921349327862 0  0.9552915104240066 0.2956655714008991 0  0.9491843487067304 0.3147206255874884 0  0.9426971406815462 0.3336496679914983 0  0.9358324837779861 0.3524451195660473 0  0.9285931265532873 0.3710994547530225 0  0.9209819675918909 0.3896052044962556 0  0.9130020543448703 0.4079549592320781 0  0.9046565819097542 0.4261413718560547 0  0.8959488917512338 0.4441571606647087 0  0.8868824703632656 0.4619951122710622 0  0.8774609478731046 0.4796480844928215 0  0.8676880965878291 0.4971090092120542 0  0.8575678294839372 0.5143708952052096 0  0.8471041986406199 0.5314268309423539 0  0.8363013936173391 0.5482699873544935 0  0.8251637397763597 0.5648936205678837 0  0.8136956965509062 0.5812910746042258 0  0.8019018556596399 0.5974557840456699 0  0.7897869392681683 0.6133812766635599 0  0.777355798098326 0.6290611760098652 0  0.7646134094859813 0.6444892039702628 0  0.7515648753881492 0.6596591832778468 0  0.7382154203402046 0.6745650399864606 0  0.7245703893640189 0.6892008059026586 0  0.7106352458278521 0.7035606209753273 0  0.6964155692588616 0.7176387356420051 0  0.6819170531091018 0.7314295131309636 0  0.6671455024759069 0.7449274317181303 0  0.6521068317775753 0.7581270869379442 0  0.6368070623852795 0.7710231937472638 0  0.6212523202121545 0.7836105886414595 0  0.6054488332605282 0.795884231721841 0  0.5894029291282759 0.8078392087135958 0  0.5731210324752972 0.8194707329334278 0  0.5566096624511305 0.8307741472061095 0  0.5398754300847343 0.8417449257291802 0  0.5229250356374803 0.8523786758850435 0  0.5057652659204196 0.8626711399997378 0  0.4884029915768944 0.8726181970476778 0  0.4708451643315825 0.8822158643016828 0  0.45309881420708 0.8914602989276292 0  0.4351710467091336 0.9003477995230937 0  0.4170690399816468 0.9088748075993677 0  0.398800041932607 0.9170379090062476 0  0.3803713673320772 0.9248338352990368 0  0.3617903948834157 0.9322594650472057 0  0.3430645642688987 0.9393118250841893 0  0.3242013731709288 0.9459880916978206 0  0.3052083742700172 0.952285591760924 0  0.2860931722207478 0.9582018038016155 0  0.2668634206069304 0.963734359012881 0  0.2475268188771628 0.9688810422010291 0  0.2280911092620296 0.9736397926726377 0  0.2085640736741707 0.9780087050596407 0  0.1889535305924618 0.9819860300822225 0  0.1692673319315541 0.9855701752492174 0  0.1495133598980264 0.9887597054957302 0  0.1296995238344084 0.9915533437577263 0  0.1098337570523395 0.9939499714833577 0  0.08992401365612977 0.9959486290808237 0  0.06997826535799723 0.9975485163025836 0  0.05000449828625179 0.9987489925657699 0  0.03001070978771124 0.9995495772086734 0  0.01000490522562346 0.9999499496831961 0  -0.01000490522562333 0.9999499496831961 0  -0.03001070978771133 0.9995495772086734 0  -0.05000449828625144 0.9987489925657699 0  -0.06997826535799688 0.9975485163025836 0  -0.08992401365612987 0.9959486290808237 0  -0.1098337570523394 0.9939499714833577 0  -0.1296995238344082 0.9915533437577263 0  -0.1495133598980262 0.9887597054957303 0  -0.1692673319315537 0.9855701752492174 0  -0.1889535305924614 0.9819860300822226 0  -0.2085640736741705 0.9780087050596407 0  -0.2280911092620295 0.9736397926726377 0  -0.2475268188771627 0.9688810422010291 0  -0.2668634206069302 0.9637343590128811 0  -0.2860931722207475 0.9582018038016156 0  -0.3052083742700173 0.9522855917609239 0  -0.3242013731709289 0.9459880916978205 0  -0.3430645642688986 0.9393118250841894 0  -0.3617903948834154 0.9322594650472058 0  -0.380371367332077 0.924833835299037 0  -0.3988000419326071 0.9170379090062476 0  -0.4170690399816465 0.9088748075993678 0  -0.4351710467091335 0.9003477995230939 0  -0.4530988142070799 0.8914602989276292 0  -0.4708451643315824 0.8822158643016829 0  -0.4884029915768945 0.8726181970476778 0  -0.5057652659204197 0.8626711399997378 0  -0.5229250356374801 0.8523786758850437 0  -0.5398754300847342 0.8417449257291804 0  -0.5566096624511303 0.8307741472061098 0  -0.5731210324752971 0.8194707329334279 0  -0.589402929128276 0.8078392087135957 0  -0.6054488332605281 0.7958842317218411 0  -0.6212523202121542 0.7836105886414597 0  -0.6368070623852793 0.7710231937472639 0  -0.652106831777575 0.7581270869379444 0  -0.6671455024759069 0.7449274317181304 0  -0.6819170531091018 0.7314295131309636 0  -0.6964155692588616 0.7176387356420052 0  -0.7106352458278521 0.7035606209753273 0  -0.7245703893640187 0.6892008059026588 0  -0.7382154203402043 0.6745650399864608 0  -0.751564875388149 0.6596591832778469 0  -0.7646134094859813 0.6444892039702628 0  -0.7773557980983258 0.6290611760098654 0  -0.7897869392681683 0.6133812766635599 0  -0.8019018556596398 0.59745578404567 0  -0.8136956965509062 0.5812910746042258 0  -0.8251637397763595 0.5648936205678839 0  -0.836301393617339 0.5482699873544935 0  -0.8471041986406197 0.5314268309423542 0  -0.8575678294839372 0.5143708952052097 0  -0.8676880965878292 0.497109009212054 0  -0.8774609478731045 0.4796480844928216 0  -0.8868824703632656 0.4619951122710621 0  -0.8959488917512338 0.4441571606647088 0  -0.904656581909754 0.426141371856055 0  -0.9130020543448703 0.4079549592320783 0  -0.920981967591891 0.3896052044962555 0  -0.9285931265532872 0.3710994547530226 0  -0.9358324837779861 0.3524451195660473 0  -0.9426971406815462 0.3336496679914984 0  -0.9491843487067303 0.3147206255874888 0  -0.9552915104240065 0.2956655714008993 0  -0.9610161805715396 0.2764921349327862 0  -0.9663560670342555 0.2572079930835851 0  -0.9713090317615876 0.2378208670793361 0  -0.9758730916235353 0.2183385193801658 0  -0.9800464192046954 0.198768750572253 0  -0.9838273435359444 0.1791193962445354 0  -0.987214350763483 0.159398323851397 0  -0.9902060847549714 0.1396134295625972 0  -0.9928013476425149 0.1197726351017052 0  -0.9949991003022804 0.09988388457430147 0  -0.9967984627705549 0.07995514128721509 0  -0.9981987145960756 0.05999438456007793 0  -0.9991992951284931 0.04000960653046362 0  -0.9997998037428526 0.02000880895389464 0  -1 1.224646799147353e-16 0  -0.9997998037428526 -0.0200088089538944 0  -0.9991992951284931 -0.04000960653046338 0  -0.9981987145960756 -0.05999438456007812 0  -0.9967984627705549 -0.07995514128721484 0  -0.9949991003022806 -0.09988388457430078 0  -0.9928013476425149 -0.1197726351017049 0  -0.9902060847549715 -0.1396134295625965 0  -0.9872143507634831 -0.1593983238513963 0  -0.9838273435359444 -0.1791193962445356 0  -0.9800464192046953 -0.1987687505722532 0  -0.9758730916235354 -0.2183385193801655 0  -0.9713090317615876 -0.2378208670793363 0  -0.9663560670342556 -0.2572079930835848 0  -0.9610161805715396 -0.276492134932786 0  -0.9552915104240066 -0.2956655714008991 0  -0.9491843487067305 -0.3147206255874881 0  -0.9426971406815464 -0.3336496679914978 0  -0.9358324837779862 -0.3524451195660471 0  -0.9285931265532875 -0.371099454753022 0  -0.9209819675918909 -0.3896052044962557 0  -0.9130020543448704 -0.407954959232078 0  -0.9046565819097541 -0.4261413718560548 0  -0.8959488917512338 -0.4441571606647086 0  -0.8868824703632655 -0.4619951122710623 0  -0.8774609478731046 -0.4796480844928214 0  -0.8676880965878293 -0.4971090092120538 0  -0.8575678294839373 -0.5143708952052095 0  -0.84710419864062 -0.5314268309423537 0  -0.8363013936173395 -0.5482699873544929 0  -0.8251637397763596 -0.5648936205678838 0  -0.8136956965509061 -0.5812910746042259 0  -0.8019018556596399 -0.5974557840456699 0  -0.7897869392681682 -0.61338127666356 0  -0.777355798098326 -0.6290611760098652 0  -0.7646134094859816 -0.6444892039702625 0  -0.7515648753881492 -0.6596591832778468 0  -0.7382154203402048 -0.6745650399864603 0  -0.7245703893640192 -0.6892008059026583 0  -0.7106352458278522 -0.7035606209753272 0  -0.6964155692588621 -0.7176387356420046 0  -0.6819170531091017 -0.7314295131309637 0  -0.667145502475907 -0.7449274317181303 0  -0.6521068317775756 -0.758127086937944 0  -0.6368070623852792 -0.7710231937472641 0  -0.6212523202121544 -0.7836105886414596 0  -0.6054488332605283 -0.795884231721841 0  -0.5894029291282762 -0.8078392087135956 0  -0.5731210324752977 -0.8194707329334274 0  -0.5566096624511304 -0.8307741472061095 0  -0.5398754300847344 -0.8417449257291802 0  -0.5229250356374798 -0.8523786758850437 0  -0.5057652659204195 -0.8626711399997379 0  -0.4884029915768943 -0.872618197047678 0  -0.4708451643315825 -0.8822158643016828 0  -0.4530988142070805 -0.8914602989276289 0  -0.4351710467091333 -0.900347799523094 0  -0.4170690399816467 -0.9088748075993677 0  -0.3988000419326073 -0.9170379090062475 0  -0.3803713673320777 -0.9248338352990366 0  -0.3617903948834162 -0.9322594650472055 0  -0.3430645642688988 -0.9393118250841893 0  -0.3242013731709283 -0.9459880916978207 0  -0.3052083742700169 -0.9522855917609241 0  -0.2860931722207477 -0.9582018038016155 0  -0.2668634206069305 -0.963734359012881 0  -0.2475268188771631 -0.968881042201029 0  -0.2280911092620301 -0.9736397926726376 0  -0.2085640736741706 -0.9780087050596407 0  -0.1889535305924619 -0.9819860300822225 0  -0.1692673319315544 -0.9855701752492173 0  -0.1495133598980269 -0.9887597054957302 0  -0.1296995238344092 -0.9915533437577262 0  -0.1098337570523396 -0.9939499714833577 0  -0.08992401365612945 -0.9959486290808237 0  -0.06997826535799691 -0.9975485163025836 0  -0.05000449828625168 -0.9987489925657699 0  -0.030010709787
[...]
<PointData  Scalars="Displacement"> 
<DataArray  type="Float64"  Name="Displacement"  format="ascii">0.0000000000000000e+00  0.0000000000000000e+00  0.0000000000000000e+00  0.0000000000000000e+00  0.0000000000000000e+00  0.0000000000000000e+00  0.0000000000000000e+00  0.0000000000000000e+00  0.0000000000000000e+00  0.0000000000000000e+00  0.0000000000000000e+00  0.0000000000000000e+00  0.0000000000000000e+00  0.0000000000000000e+00  0.0000000000000000e+00  0.0000000000000000e+00  0.0000000000000000e+00  0.0000000000000000e+00  0.0000000000000000e+00  0.0000000000000000e+00  0.0000000000000000e+00  0.0000000000000000e+00  0.0000000000000000e+00  0.0000000000000000e+00  0.0000000000000000e+00  0.0000000000000000e+00  0.0000000000000000e+00  0.0000000000000000e+00  0.0000000000000000e+00  0.0000000000000000e+00  0.0000000000000000e+00  0.0000000000000000e+00  0.0000000000000000e+00  0.0000000000000000e+00  0.0000000000000000e+00  0.0000000000000000e+00  0.0000000000000000e+00  0.0000000000000000e+00  0.0000000000000000e+00  0.0000000000000000e+00  0.0000000000000000e+00  0.0000000000000000e+00  0.0000000000000000e+00  0.0000000000000000e+00  0.0000000000000000e+00  0.0000000000000000e+00  0.0000000000000000e+00  0.0000000000000000e+00  0.0000000000000000e+00  0.0000000000000000e+00  0.0000000000000000e+00  0.0000000000000000e+00  0.0000000000000000e+00  0.0000000000000000e+00  0.0000000000000000e+00  0.0000000000000000e+00  0.0000000000000000e+00  0.0000000000000000e+00  0.0000000000000000e+00  0.0000000000000000e+00  0.0000000000000000e+00  0.0000000000000000e+00  0.0000000000000000e+00  0.0000000000000000e+00  0.0000000000000000e+00  0.0000000000000000e+00  0.0000000000000000e+00  0.0000000000000000e+00  0.0000000000000000e+00  0.0000000000000000e+00  0.0000000000000000e+00  0.0000000000000000e+00  0.0000000000000000e+00  0.0000000000000000e+00  0.0000000000000000e+00  0.0000000000000000e+00  0.0000000000000000e+00  0.0000000000000000e+00  0.0000000000000000e+00  0.0000000000000000e+00  0.0000000000000000e+00  0.0000000000000000e+00  0.0000000000000000e+00  0.0000000000000000e+00  0.0000000000000000e+00  0.0000000000000000e+00  0.0000000000000000e+00  0.0000000000000000e+00  0.0000000000000000e+00  0.0000000000000000e+00  0.0000000000000000e+00  0.0000000000000000e+00  0.0000000000000000e+00  0.0000000000000000e+00  0.0000000000000000e+00  0.0000000000000000e+00  0.0000000000000000e+00  0.0000000000000000e+00  0.0000000000000000e+00  0.0000000000000000e+00  0.0000000000000000e+00  0.0000000000000000e+00  0.0000000000000000e+00  0.0000000000000000e+00  0.0000000000000000e+00  0.0000000000000000e+00  0.0000000000000000e+00  0.0000000000000000e+00  0.0000000000000000e+00  0.0000000000000000e+00  0.0000000000000000e+00  0.0000000000000000e+00  0.0000000000000000e+00  0.0000000000000000e+00  0.0000000000000000e+00  0.0000000000000000e+00  0.0000000000000000e+00  0.0000000000000000e+00  0.0000000000000000e+00  0.0000000000000000e+00  0.0000000000000000e+00  0.0000000000000000e+00  0.0000000000000000e+00  0.0000000000000000e+00  0.0000000000000000e+00  0.0000000000000000e+00  0.0000000000000000e+00  0.0000000000000000e+00  0.0000000000000000e+00  0.0000000000000000e+00  0.0000000000000000e+00  0.0000000000000000e+00  0.0000000000000000e+00  0.0000000000000000e+00  0.0000000000000000e+00  0.0000000000000000e+00  0.0000000000000000e+00  0.0000000000000000e+00  0.0000000000000000e+00  0.0000000000000000e+00  0.0000000000000000e+00  0.0000000000000000e+00  0.0000000000000000e+00  0.0000000000000000e+00  0.0000000000000000e+00  0.0000000000000000e+00  0.0000000000000000e+00  0.0000000000000000e+00  0.0000000000000000e+00  0.0000000000000000e+00  0.0000000000000000e+00  0.0000000000000000e+00  0.0000000000000000e+00  0.0000000000000000e+00  0.0000000000000000e+00  0.0000000000000000e+00  0.0000000000000000e+00  0.0000000000000000e+00  0.0000000000000000e+00  0.0000000000000000e+00  0.0000000000000000e+00  0.0000000000000000e+00  0.0000000000000000e+00  0.0000000000000000e+00  0.0000000000000000e+00  0.0000000000000000e+00  0.0000000000000000e+00  0.0000000000000000e+00  0.0000000000000000e+00  0.0000000000000000e+00  0.0000000000000000e+00  0.0000000000000000e+00  0.0000000000000000e+00  0.0000000000000000e+00  0.0000000000000000e+00  0.0000000000000000e+00  0.0000000000000000e+00  0.0000000000000000e+00  0.0000000000000000e+00  0.0000000000000000e+00  0.0000000000000000e+00  0.0000000000000000e+00  0.0000000000000000e+00  0.0000000000000000e+00  0.0000000000000000e+00  0.0000000000000000e+00  0.0000000000000000e+00  0.0000000000000000e+00  0.0000000000000000e+00  0.0000000000000000e+00  0.0000000000000000e+00  0.0000000000000000e+00  0.0000000000000000e+00  0.0000000000000000e+00  0.0000000000000000e+00  0.0000000000000000e+00  0.0000000000000000e+00  0.0000000000000000e+00  0.0000000000000000e+00  0.0000000000000000e+00  0.0000000000000000e+00  0.0000000000000000e+00  0.0000000000000000e+00  0.0000000000000000e+00  0.0000000000000000e+00  0.0000000000000000e+00  0.0000000000000000e+00  0.0000000000000000e+00  0.0000000000000000e+00  0.0000000000000000e+00  0.0000000000000000e+00  0.0000000000000000e+00  0.0000000000000000e+00  0.0000000000000000e+00  0.0000000000000000e+00  0.0000000000000000e+00  0.0000000000000000e+00  0.0000000000000000e+00  0.0000000000000000e+00  0.0000000000000000e+00  0.0000000000000000e+00  0.0000000000000000e+00  0.0000000000000000e+00  0.0000000000000000e+00  0.0000000000000000e+00  0.0000000000000000e+00  0.0000000000000000e+00  0.0000000000000000e+00  0.0000000000000000e+00  0.0000000000000000e+00  0.0000000000000000e+00  0.0000000000000000e+00  0.0000000000000000e+00  0.0000000000000000e+00  0.0000000000000000e+00  0.0000000000000000e+00  0.0000000000000000e+00  0.0000000000000000e+00  0.0000000000000000e+00  0.0000000000000000e+00  0.0000000000000000e+00  0.0000000000000000e+00  0.0000000000000000e+00  0.0000000000000000e+00  0.0000000000000000e+00  0.0000000000000000e+00  0.0000000000000000e+00  0.0000000000000000e+00  0.0000000000000000e+00  0.0000000000000000e+00  0.0000000000000000e+00  0.0000000000000000e+00  0.0000000000000000e+00  0.0000000000000000e+00  0.0000000000000000e+00  0.0000000000000000e+00  0.0000000000000000e+00  0.0000000000000000e+00  0.0000000000000000e+00  0.0000000000000000e+00  0.0000000000000000e+00  0.0000000000000000e+00  0.0000000000000000e+00  0.0000000000000000e+00  0.0000000000000000e+00  0.0000000000000000e+00  0.0000000000000000e+00  0.0000000000000000e+00  0.0000000000000000e+00  0.0000000000000000e+00  0.0000000000000000e+00  0.0000000000000000e+00  0.0000000000000000e+00  0.0000000000000000e+00  0.0000000000000000e+00  0.0000000000000000e+00  0.0000000000000000e+00  0.0000000000000000e+00  0.0000000000000000e+00  0.0000000000000000e+00  0.0000000000000000e+00  0.0000000000000000e+00  0.0000000000000000e+00  0.0000000000000000e+00  0.0000000000000000e+00  0.0000000000000000e+00  0.0000000000000000e+00  0.0000000000000000e+00  0.0000000000000000e+00  0.0000000000000000e+00  0.0000000000000000e+00  0.0000000000000000e+00  0.0000000000000000e+00  0.0000000000000000e+00  0.0000000000000000e+00  0.0000000000000000e+00  0.0000000000000000e+00  0.0000000000000000e+00  0.0000000000000000e+00  0.0000000000000000e+00  0.0000000000000000e+00  0.0000000000000000e+00  0.0000000000000000e+00  0.0000000000000000e+00  0.0000000000000000e+00  0.0000000000000000e+00  0.0000000000000000e+00  0.0000000000000000e+00  0.0000000000000000e+00  0.0000000000000000e+00  0.0000000000000000e+00  0.0000000000000000e+00  0.0000000000000000e+00  0.0000000000000000e+00  3.4415976575816165e+154  5.6831920728184207e+151  3.4620556863282137e+151  7.7593079069445696e+153  2.7704347898592648e+151  1.0855821333629635e+153  8.3506737193668546e+148  7.7279475467363304e+147  -2.5885987372193181e+149  -1.9922823698211025e+147  -6.2278070542093636e+148  2.9387867420162100e+156  6.1272434635809052e+148  -4.7655649614882432e+146  -1.3253058854676234e+155  -2.4908950290585401e+154  -2.5512060505161912e+147  3.3714222137021315e+145  -3.7717845819723199e+144  -1.2979404891482559e+147  3.1554784071695565e+144  -8.7225985914028403e+145  -6.0647903431533776e+144  -3.7975093006928782e+153  -1.1214589055105810e+157  6.2658768307681498e+154  -2.1821369763307085e+147  3.8176537627198338e+144  -4.9488643553021913e+146  2.8165392725224975e+153  8.2013183199027329e+143  7.6639920504355047e+156  -3.7935021503922674e+157  1.2380106256513698e+156  -3.0819011364940352e+145  1.1224598247847475e+144  2.5611518602407026e+143  2.5724494729594850e+144  1.6043417431350155e+145  1.3154510333769189e+152  -1.5692340082670886e+153  3.4666892639595422e+147  -1.5230651411158750e+151  -1.5575621288369797e+157  -2.9176818160109036e+143  1.5534342010010449e+143  -5.9533197124175321e+143  -2.2319881139103207e+143  2.9047047560929203e+150  -4.2026681864301905e+149  -4.7005353290731327e+149  -1.7246326813245104e+148  3.8531148021825773e+151  -1.8354920831870889e+154  -1.7799184915482368e+146  -1.9992290958612091e+155  -1.3364343401392766e+144  1.3764246071242244e+144  -3.5120390523799775e+153  1.5696489577894983e+144  8.3365220032345417e+143  -1.1071529742740649e+147  -2.8537903059703915e+141  -2.5315060383329858e+142  -2.0484234648881310e+155  4.3301013690527544e+155  1.2813395195508427e+157  2.6437315059110073e+152  4.2904690265479855e+156  -2.3552879662880134e+154  1.4746318468945500e+156  -1.0557093068269746e+150  1.1243683790340442e+151  4.7330444919828573e+149  -3.6286016475613553e+149  1.7169513560585866e+153  -2.8938787317962281e+143  1.8669148101388559e+153  -2.5621524051261824e+155  -5.5590415339035682e+147  -2.6462481449818989e+143  -6.9968735761225103e+151  -8.2848689943379798e+142  -7.2989459028377014e+141  -1.3373663334113796e+142  4.9423572386955376e+156  -9.0229689850205958e+143  1.3299003619848048e+142  -8.5094890369609747e+141  9.5329766387277877e+153  2.2585717166051086e+147  1.6713604229049662e+143  4.5278216030767161e+148  4.5367917665776562e+140  2.0029624956412259e+148  5.0273340022877162e+158  1.7520060266850917e+141  -5.1779395903255342e+142  -1.5113746632752977e+147  -3.4404610402739056e+145  2.0409623696379745e+148  2.8273951185199883e+148  7.2004602812638736e+142  4.0671099256108442e+153  -1.7469223896391383e+151  -2.0168924790124040e+150  1.0192348289614757e+154  7.9412792047434630e+147  -1.3117194949580013e+148  -4.0196071857586293e+142  3.7944032210102437e+153  5.4114119463041503e+145  -5.5171906979834158e+141  -7.7729913199846910e+150  -9.1573854996618630e+150  -8.4969099873688324e+144  -7.4111238726185607e+141  1.1890072514364525e+142  -8.7280532230960618e+140  1.4455898512716445e+155  1.0305425523268810e+153  1.2913992606569806e+146  1.3799138054538547e+158  -4.8329710197788253e+143  -6.6151084578419777e+147  -2.7149869205473382e+147  1.4764546031683133e+142  -5.0343236767531213e+141  2.3888365267465259e+146  8.2939580511895304e+147  5.7053604055519714e+147  1.2461258323668228e+147  -3.4400187076549240e+150  -7.4759489132048827e+152  -5.3480504694911209e+147  -1.8096617695887577e+145  9.7885034896962052e+142  5.4762285165957348e+160  2.1537181238654485e+154  -4.6736336933609845e+152  1.6550324225246627e+155  -1.0125378447388859e+160  -1.4671812580558268e+145  2.3069089245881935e+156  -1.6242061442111881e+150  -3.0961334467213428e+145  -8.4634950452689387e+144  -5.3765105107001088e+152  1.4066425515318398e+157  -7.2029580460207968e+146  3.9002081664855691e+141  4.0627352609663587e+151  -4.3335098115415438e+156  -2.5601544081820857e+143  -1.7250167316684397e+144  1.9743872016370303e+142  3.6956722133657012e+140  1.5748561069954355e+146  1.2324489431720703e+142  -1.9495914494919412e+140  -9.3889372743846443e+140  4.1239184867425370e+144  1.7663085442868745e+149  -8.4891466691470107e+141  -2.1834178364133155e+145  -3.7668180757276367e+151  -1.2604299644984891e+147  2.3160116304185095e+141  1.3822149675863094e+141  -2.1649532732245618e+144  -2.2692644705766203e+150  1.5251865181984739e+155  5.9059933947837129e+144  3.7265913873173160e+155  -7.5398011133408597e+139  -1.6391787894115500e+150  5.7764558503261404e+141  1.3167814635764435e+146  5.6042502808060563e+140  -1.2334195638575256e+151  -1.0669982533926071e+145  -1.6803528083754423e+153  -1.3794031649979833e+148  3.5688965417410463e+157  -2.2647885324140552e+140  2.6502058277454006e+150  -1.4726371095535935e+149  -1.4346270844560838e+153  4.7890101064074768e+141  -1.0840821629615056e+144  2.3256760406824967e+141  2.5549758547727362e+157  -1.3318517795735127e+141  1.5422411792833825e+143  1.1360260125693258e+154  -5.0773680918907990e+156  1.4815842039600056e+146  2.2401108792066329e+146  -6.8279551735341376e+151  -1.6697907859117998e+148  3.9089224876227088e+150  2.5635806315293051e+148  2.7093443268845480e+150  -2.2093850665943375e+146  6.2137312574177660e+148  8.5748064050723712e+144  -4.4487929638159282e+144  1.2626131489683628e+155  5.4378423919877364e+142  -2.0308901075757561e+145  -2.2490435616568883e+145  -5.4815172204083110e+154  1.9026026907734727e+154  2.8689275223014906e+144  6.6540221152182394e+139  -4.9519927902425481e+146  -1.1993828034516991e+155  -1.3136114968278542e+142  1.3314189665452013e+148  3.5039414953917341e+145  -4.8111343181979142e+143  -6.9517141343423547e+148  1.1876078176286450e+154  4.6749593137704417e+148  -1.7660644511164012e+149  1.5050984714940042e+141  4.2243569767721042e+145  3.6639543779404731e+141  -3.6555235319900576e+146  2.4489364052512505e+140  -1.8366972189452238e+142  2.6699621190132683e+142  -2.9883400810882489e+141  -1.0298699077212800e+144  -5.5341115489625557e+141  3.9627177582117733e+151  5.8915757658206041e+148  -7.3782637450156099e+144  2.4839984646286402e+144  -3.6804529325262036e+153  1.0570754017444993e+155  -2.4955109171921095e+149  -1.5634063135311130e+150  1.2883094866418812e+142  -1.9519185352478068e+153  -5.1427046282574773e+145  -1.6023716732741541e+141  4.2112228550810962e+140  -4.2455802118977029e+154  4.4353681727622990e+151  1.0354074882893068e+151  -1.1603871352209662e+150  -3.6232491832015090e+157  7.0942116618689432e+154  -1.8037986645280494e+143  1.6958850120764617e+155  1.8487086844694353e+147  8.3933589650848571e+150  -1.5446714695086536e+142  -6.5444941324754941e+140  -2.4580576529518210e+140  7.6382011656871859e+147  -3.1360261714164087e+144  1.6312117750814796e+152  9.6744322390011975e+153  3.4497516321272932e+154  -1.2107528142081520e+144  -3.2239218088319855e+142  -2.8835657129579161e+140  6.0952720252112949e+149  1.0763322499030495e+139  1.2763240705214488e+156  -1.0939156115617431e+154  1.8620939541237536e+146  -5.2809531276204456e+142  -1.4532084315329426e+146  1.8721782767813689e+157  -2.1188718727895450e+154  -3.6389818114949607e+153  1.6567390868667283e+152  7.1260997723066224e+153  1.2653880761388847e+155  3.1414526651063659e+156  2.3888437043441803e+150  2.5904619417048198e+148  -7.5726668870418643e+144  -4.7123683232828792e+158  1.7505439353915440e+142  -4.6472595778318608e+144  -7.7406857002663935e+154  4.5874767359938323e+156  2.5635122427745777e+154  -2.1819876083356138e+148  1.3068416010930426e+150  -1.1146253387942977e+159  -8.0356402477733449e+140  1.5158374923512759e+154  1.9166878986930634e+140  1.8555212461866249e+140  -1.0783774818455049e+141  -2.9929359269142621e+154  -4.6870088590558165e+152  -1.5740676046998802e+157  -3.8712874875222515e+157  4.6739593216917300e+149  -6.8511842033001422e+145  -2.2937528202500485e+147  -9.8861001589040128e+149  -3.6275781844767919e+150  -1.0580965248720997e+148  -2.7863326313455838e+152  2.3439418317609790e+149  -3.3363586486267072e+154  2.3932730112589991e+144  -1.9183282637140271e+155  1.7039504167700574e+154  -6.1919361435722260e+150  -2.3129357398646677e+145  -3.5684728904716773e+144  1.3310859766030914e+141  -5.4016539762642744e+143  3.9195126087119767e+144  -4.8793603863514991e+141  1.2384877240065943e+156  1.5962570350465396e+141  -1.5830089024585214e+141  -7.0267909267430451e+142  5.4600339756884000e+153  2.2374493993271684e+152  2.2912811651413584e+155  2.0339224079426278e+140  -1.5843905370984890e+146  4.3508851476936209e+148  1.3461950472670849e+153  -4.8561014787884558e+153  -8.5772616970516199e+146  -9.8801387308259732e+152  -1.3624842126629841e+152  -3.9802781892137517e+159  8.9698419315218146e+146  -9.8716952643269341e+144  -3.8399039987682743e+150  3.2863991480773765e+141  8.5638682313961534e+142  3.3350856462386530e+148  7.0324275953461618e+139  2.3059095762312711e+145  -3.9183390446463244e+146  3.3709423080770138e+139  7.9525855574258635e+146  -6.8538619021760368e+147  -2.5755125151386123e+141  -2.1869445174805226e+144  -1.0107189120183424e+140  3.0120649305914190e+143  -3.7927423791545164e+144  -4.1491482560962596e+149  5.6853159506228072e+155  -3.8143948321488345e+141  5.4757781031403275e+154  -9.1668459739138832e+156  -5.0538463712304976e+144  1.3073850459220462e+141  -1.1305099301625017e+150  1.5080106602628065e+144  -1.7908305755882356e+158  3.9203150511600580e+143  5.3031954244690792e+145  2.6386242458637936e+155  4.6640945362603030e+142  -4.6870819504015963e+138  4.0671180544103748e+139  -2.2598927264828630e+144  2.9382294868136619e+153  -1.6770949876010170e+152  -4.5719382112427450e+147  -2.1623312955279568e+144  1.5872022589255745e+157  -5.6735941660179685e+148  3.0651871641380703e+141  1.3447058839119457e+151  -1.3900913594693976e+141  -4.1900421794619960e+143  5.9431988648458294e+151  -2.7938211488956943e+140  -2.5879061799055881e+159  -3.0049989091392624e+139  -1.2293218800396625e+144  9.9778046379212867e+139  -6.0303838682129088e+152  4.5254709755321578e+148  -6.8213194603681982e+145  1.6702969875938396e+150  -4.4622331432840381e+139  -2.5088062354195491e+144  -4.1357795651846041e+153  -4.8029978040595729e+143  2.7252410467502873e+151  1.0712460409609351e+147  1.1579664475848959e+140  1.4219174432020327e+140  -4.2154813762185534e+152  -1.2235873763388567e+142  2.3404718394547202e+153  -9.3203412771219484e+145  8.8535318325644394e+153  9.3410827894567861e+148  -8.1593763252980941e+140  -9.4565665761207372e+143  -1.2051336189037370e+144  -4.9388292421426628e+143  -3.3070455011580829e+143  -1.1378824799712738e+155  3.4038503966082837e+156  -2.4195235089464407e+159  -1.0771740956097802e+155  2.0729866685707823e+144  -4.6520543515497861e+157  4.3975207561613323e+154  -1.6864523401504898e+144  1.9332406348125958e+140  2.7086896270914042e+140  5.1939628609651732e+148  -6.1035328507348927e+147  -3.3729399027610240e+145  8.5248778285963215e+154  8.5859851357515375e+146  -2.3962409921453332e+140  -7.7621257367136449e+139  -4.5517548708502006e+141  -1.6724817664231037e+149  6.4094236990732672e+143  5.3971910514553438e+146  -5.3646034520917367e+142  -7.5321458455777450e+142  7.9680114070649225e+143  -3.6093607226600130e+149  -2.9438254635173562e+143  3.2317816099282593e+151  2.1021266816469498e+151  -8.3933173423351101e+151  2.0627318298225023e+149  9.0704245256628532e+150  -4.1913388778932909e+151  -2.2494928730419323e+143  7.7715129483224437e+154  -7.0617561315570225e+144  2.1999216310763767e+157  -1.7732410904707874e+148  -4.6538245333065091e+153  5.0367850322579371e+150  3.7837926361272034e+158  -2.0154767425008332e+144  -2.0828440773763915e+141  -1.1760566361688565e+144  9.7950195533146093e+155  -6.3447681365595457e+146  7.6015792980593673e+151  2.4934625391086604e+152  -7.6656177065026024e+142  -1.4914516956880536e+148  1.2675979084639191e+140  4.0390238759584257e+158  4.4752400700861524e+158  2.7716318343444292e+155  -2.0017173910372259e+146  -5.9568567897689631e+143  -1.1581973184810895e+144  -2.9046021222601727e+146  4.2353012820024706e+148  -1.9329391424139761e+151  -1.7328872172718321e+142  6.5272070730815597e+152  -2.6975151260802349e+149  -5.2690728245277312e+145  1.2887005790515030e+158  -3.0811488846088290e+146  5.8057440320983582e+151  1.6382094639923121e+148  1.1746369094073560e+150  2.9701697962242782e+147  -3.1719485921902518e+145  3.2362837126495449e+140  2.6264393651487023e+144  1.0108941246