<?xml version="1.0"?>
<VTKFile type="UnstructuredGrid"  version="0.1"  >
<UnstructuredGrid>
<Piece  NumberOfPoints="20054" NumberOfCells="39478">
<Points>
<DataArray  type="Float64"  NumberOfComponents="3"  format="ascii">1 0 0  0.9997998037428526 0.02000880895389431 0  0.9991992951284931 0.04000960653046352 0  0.9981987145960756 0.05999438456007805 0  0.9967984627705549 0.07995514128721501 0  0.9949991003022806 0.09988388457430118 0  0.9928013476425149 0.1197726351017051 0  0.9902060847549715 0.139613429562597 0  0.987214350763483 0.1593983238513969 0  0.9838273435359444 0.1791193962445356 0  0.9800464192046954 0.198768750572253 0  0.9758730916235354 0.2183385193801655 0  0.9713090317615876 0.237820867079336 0  0.9663560670342555 0.2572079930835849 0  0.9610161805715396 0.2764921349327862 0  0.9552915104240066 0.2956655714008991 0  0.9491843487067304 0.3147206255874884 0  0.9426971406815462 0.3336496679914983 0  0.9358324837779861 0.3524451195660473 0  0.9285931265532873 0.3710994547530225 0  0.9209819675918909 0.3896052044962556 0  0.9130020543448703 0.4079549592320781 0  0.9046565819097542 0.4261413718560547 0  0.8959488917512338 0.4441571606647087 0  0.8868824703632656 0.4619951122710622 0  0.8774609478731046 0.4796480844928215 0  0.8676880965878291 0.4971090092120542 0  0.8575678294839372 0.5143708952052096 0  0.8471041986406199 0.5314268309423539 0  0.8363013936173391 0.5482699873544935 0  0.8251637397763597 0.5648936205678837 0  0.8136956965509062 0.5812910746042258 0  0.8019018556596399 0.5974557840456699 0  0.7897869392681683 0.6133812766635599 0  0.777355798098326 0.6290611760098652 0  0.7646134094859813 0.6444892039702628 0  0.7515648753881492 0.6596591832778468 0  0.7382154203402046 0.6745650399864606 0  0.7245703893640189 0.6892008059026586 0  0.7106352458278521 0.7035606209753273 0  0.6964155692588616 0.7176387356420051 0  0.6819170531091018 0.7314295131309636 0  0.6671455024759069 0.7449274317181303 0  0.6521068317775753 0.7581270869379442 0  0.6368070623852795 0.7710231937472638 0  0.6212523202121545 0.7836105886414595 0  0.6054488332605282 0.795884231721841 0  0.5894029291282759 0.8078392087135958 0  0.5731210324752972 0.8194707329334278 0  0.5566096624511305 0.8307741472061095 0  0.5398754300847343 0.8417449257291802 0  0.5229250356374803 0.8523786758850435 0  0.5057652659204196 0.8626711399997378 0  0.4884029915768944 0.8726181970476778 0  0.4708451643315825 0.8822158643016828 0  0.45309881420708 0.8914602989276292 0  0.4351710467091336 0.9003477995230937 0  0.4170690399816468 0.9088748075993677 0  0.398800041932607 0.9170379090062476 0  0.3803713673320772 0.9248338352990368 0  0.3617903948834157 0.9322594650472057 0  0.3430645642688987 0.9393118250841893 0  0.3242013731709288 0.9459880916978206 0  0.3052083742700172 0.952285591760924 0  0.2860931722207478 0.9582018038016155 0  0.2668634206069304 0.963734359012881 0  0.2475268188771628 0.9688810422010291 0  0.2280911092620296 0.9736397926726377 0  0.2085640736741707 0.9780087050596407 0  0.1889535305924618 0.9819860300822225 0  0.1692673319315541 0.9855701752492174 0  0.1495133598980264 0.9887597054957302 0  0.1296995238344084 0.9915533437577263 0  0.1098337570523395 0.9939499714833577 0  0.08992401365612977 0.9959486290808237 0  0.06997826535799723 0.9975485163025836 0  0.05000449828625179 0.9987489925657699 0  0.03001070978771124 0.9995495772086734 0  0.01000490522562346 0.9999499496831961 0  -0.01000490522562333 0.9999499496831961 0  -0.03001070978771133 0.9995495772086734 0  -0.05000449828625144 0.9987489925657699 0  -0.06997826535799688 0.9975485163025836 0  -0.08992401365612987 0.9959486290808237 0  -0.1098337570523394 0.9939499714833577 0  -0.1296995238344082 0.9915533437577263 0  -0.1495133598980262 0.9887597054957303 0  -0.1692673319315537 0.9855701752492174 0  -0.1889535305924614 0.9819860300822226 0  -0.2085640736741705 0.9780087050596407 0  -0.2280911092620295 0.9736397926726377 0  -0.2475268188771627 0.9688810422010291 0  -0.2668634206069302 0.9637343590128811 0  -0.2860931722207475 0.9582018038016156 0  -0.3052083742700173 0.9522855917609239 0  -0.3242013731709289 0.9459880916978205 0  -0.3430645642688986 0.9393118250841894 0  -0.3617903948834154 0.9322594650472058 0  -0.380371367332077 0.924833835299037 0  -0.3988000419326071 0.9170379090062476 0  -0.4170690399816465 0.9088748075993678 0  -0.4351710467091335 0.9003477995230939 0  -0.4530988142070799 0.8914602989276292 0  -0.4708451643315824 0.8822158643016829 0  -0.4884029915768945 0.8726181970476778 0  -0.5057652659204197 0.8626711399997378 0  -0.5229250356374801 0.8523786758850437 0  -0.5398754300847342 0.8417449257291804 0  -0.5566096624511303 0.8307741472061098 0  -0.5731210324752971 0.8194707329334279 0  -0.589402929128276 0.8078392087135957 0  -0.6054488332605281 0.7958842317218411 0  -0.6212523202121542 0.7836105886414597 0  -0.6368070623852793 0.7710231937472639 0  -0.652106831777575 0.7581270869379444 0  -0.6671455024759069 0.7449274317181304 0  -0.6819170531091018 0.7314295131309636 0  -0.6964155692588616 0.7176387356420052 0  -0.7106352458278521 0.7035606209753273 0  -0.7245703893640187 0.6892008059026588 0  -0.7382154203402043 0.6745650399864608 0  -0.751564875388149 0.6596591832778469 0  -0.7646134094859813 0.6444892039702628 0  -0.7773557980983258 0.6290611760098654 0  -0.7897869392681683 0.6133812766635599 0  -0.8019018556596398 0.59745578404567 0  -0.8136956965509062 0.5812910746042258 0  -0.8251637397763595 0.5648936205678839 0  -0.836301393617339 0.5482699873544935 0  -0.8471041986406197 0.5314268309423542 0  -0.8575678294839372 0.5143708952052097 0  -0.8676880965878292 0.497109009212054 0  -0.8774609478731045 0.4796480844928216 0  -0.8868824703632656 0.4619951122710621 0  -0.8959488917512338 0.4441571606647088 0  -0.904656581909754 0.426141371856055 0  -0.9130020543448703 0.4079549592320783 0  -0.920981967591891 0.3896052044962555 0  -0.9285931265532872 0.3710994547530226 0  -0.9358324837779861 0.3524451195660473 0  -0.9426971406815462 0.3336496679914984 0  -0.9491843487067303 0.3147206255874888 0  -0.9552915104240065 0.2956655714008993 0  -0.9610161805715396 0.2764921349327862 0  -0.9663560670342555 0.2572079930835851 0  -0.9713090317615876 0.2378208670793361 0  -0.9758730916235353 0.2183385193801658 0  -0.9800464192046954 0.198768750572253 0  -0.9838273435359444 0.1791193962445354 0  -0.987214350763483 0.159398323851397 0  -0.9902060847549714 0.1396134295625972 0  -0.9928013476425149 0.1197726351017052 0  -0.9949991003022804 0.09988388457430147 0  -0.9967984627705549 0.07995514128721509 0  -0.9981987145960756 0.05999438456007793 0  -0.9991992951284931 0.04000960653046362 0  -0.9997998037428526 0.02000880895389464 0  -1 1.224646799147353e-16 0  -0.9997998037428526 -0.0200088089538944 0  -0.9991992951284931 -0.04000960653046338 0  -0.9981987145960756 -0.05999438456007812 0  -0.9967984627705549 -0.07995514128721484 0  -0.9949991003022806 -0.09988388457430078 0  -0.9928013476425149 -0.1197726351017049 0  -0.9902060847549715 -0.1396134295625965 0  -0.9872143507634831 -0.1593983238513963 0  -0.9838273435359444 -0.1791193962445356 0  -0.9800464192046953 -0.1987687505722532 0  -0.9758730916235354 -0.2183385193801655 0  -0.9713090317615876 -0.2378208670793363 0  -0.9663560670342556 -0.2572079930835848 0  -0.9610161805715396 -0.276492134932786 0  -0.9552915104240066 -0.2956655714008991 0  -0.9491843487067305 -0.3147206255874881 0  -0.9426971406815464 -0.3336496679914978 0  -0.9358324837779862 -0.3524451195660471 0  -0.9285931265532875 -0.371099454753022 0  -0.9209819675918909 -0.3896052044962557 0  -0.9130020543448704 -0.407954959232078 0  -0.9046565819097541 -0.4261413718560548 0  -0.8959488917512338 -0.4441571606647086 0  -0.8868824703632655 -0.4619951122710623 0  -0.8774609478731046 -0.4796480844928214 0  -0.8676880965878293 -0.4971090092120538 0  -0.8575678294839373 -0.5143708952052095 0  -0.84710419864062 -0.5314268309423537 0  -0.8363013936173395 -0.5482699873544929 0  -0.8251637397763596 -0.5648936205678838 0  -0.8136956965509061 -0.5812910746042259 0  -0.8019018556596399 -0.5974557840456699 0  -0.7897869392681682 -0.61338127666356 0  -0.777355798098326 -0.6290611760098652 0  -0.7646134094859816 -0.6444892039702625 0  -0.7515648753881492 -0.6596591832778468 0  -0.7382154203402048 -0.6745650399864603 0  -0.7245703893640192 -0.6892008059026583 0  -0.7106352458278522 -0.7035606209753272 0  -0.6964155692588621 -0.7176387356420046 0  -0.6819170531091017 -0.7314295131309637 0  -0.667145502475907 -0.7449274317181303 0  -0.6521068317775756 -0.758127086937944 0  -0.6368070623852792 -0.7710231937472641 0  -0.6212523202121544 -0.7836105886414596 0  -0.6054488332605283 -0.795884231721841 0  -0.5894029291282762 -0.8078392087135956 0  -0.5731210324752977 -0.8194707329334274 0  -0.5566096624511304 -0.8307741472061095 0  -0.5398754300847344 -0.8417449257291802 0  -0.5229250356374798 -0.8523786758850437 0  -0.5057652659204195 -0.8626711399997379 0  -0.4884029915768943 -0.872618197047678 0  -0.4708451643315825 -0.8822158643016828 0  -0.4530988142070805 -0.8914602989276289 0  -0.4351710467091333 -0.900347799523094 0  -0.4170690399816467 -0.9088748075993677 0  -0.3988000419326073 -0.9170379090062475 0  -0.3803713673320777 -0.9248338352990366 0  -0.3617903948834162 -0.9322594650472055 0  -0.3430645642688988 -0.9393118250841893 0  -0.3242013731709283 -0.9459880916978207 0  -0.3052083742700169 -0.9522855917609241 0  -0.2860931722207477 -0.9582018038016155 0  -0.2668634206069305 -0.963734359012881 0  -0.2475268188771631 -0.968881042201029 0  -0.2280911092620301 -0.9736397926726376 0  -0.2085640736741706 -0.9780087050596407 0  -0.1889535305924619 -0.9819860300822225 0  -0.1692673319315544 -0.9855701752492173 0  -0.1495133598980269 -0.9887597054957302 0  -0.1296995238344092 -0.9915533437577262 0  -0.1098337570523396 -0.9939499714833577 0  -0.08992401365612945 -0.9959486290808237 0  -0.06997826535799691 -0.9975485163025836 0  -0.05000449828625168 -0.9987489925657699 0  -0.030010709787
[...]
<PointData  Scalars="Displacement"> 
<DataArray  type="Float64"  Name="Displacement"  format="ascii">0.0000000000000000e+00  0.0000000000000000e+00  0.0000000000000000e+00  0.0000000000000000e+00  0.0000000000000000e+00  0.0000000000000000e+00  0.0000000000000000e+00  0.0000000000000000e+00  0.0000000000000000e+00  0.0000000000000000e+00  0.0000000000000000e+00  0.0000000000000000e+00  0.0000000000000000e+00  0.0000000000000000e+00  0.0000000000000000e+00  0.0000000000000000e+00  0.0000000000000000e+00  0.0000000000000000e+00  0.0000000000000000e+00  0.0000000000000000e+00  0.0000000000000000e+00  0.0000000000000000e+00  0.0000000000000000e+00  0.0000000000000000e+00  0.0000000000000000e+00  0.0000000000000000e+00  0.0000000000000000e+00  0.0000000000000000e+00  0.0000000000000000e+00  0.0000000000000000e+00  0.0000000000000000e+00  0.0000000000000000e+00  0.0000000000000000e+00  0.0000000000000000e+00  0.0000000000000000e+00  0.0000000000000000e+00  0.0000000000000000e+00  0.0000000000000000e+00  0.0000000000000000e+00  0.0000000000000000e+00  0.0000000000000000e+00  0.0000000000000000e+00  0.0000000000000000e+00  0.0000000000000000e+00  0.0000000000000000e+00  0.0000000000000000e+00  0.0000000000000000e+00  0.0000000000000000e+00  0.0000000000000000e+00  0.0000000000000000e+00  0.0000000000000000e+00  0.0000000000000000e+00  0.0000000000000000e+00  0.0000000000000000e+00  0.0000000000000000e+00  0.0000000000000000e+00  0.0000000000000000e+00  0.0000000000000000e+00  0.0000000000000000e+00  0.0000000000000000e+00  0.0000000000000000e+00  0.0000000000000000e+00  0.0000000000000000e+00  0.0000000000000000e+00  0.0000000000000000e+00  0.0000000000000000e+00  0.0000000000000000e+00  0.0000000000000000e+00  0.0000000000000000e+00  0.0000000000000000e+00  0.0000000000000000e+00  0.0000000000000000e+00  0.0000000000000000e+00  0.0000000000000000e+00  0.0000000000000000e+00  0.0000000000000000e+00  0.0000000000000000e+00  0.0000000000000000e+00  0.0000000000000000e+00  0.0000000000000000e+00  0.0000000000000000e+00  0.0000000000000000e+00  0.0000000000000000e+00  0.0000000000000000e+00  0.0000000000000000e+00  0.0000000000000000e+00  0.0000000000000000e+00  0.0000000000000000e+00  0.0000000000000000e+00  0.0000000000000000e+00  0.0000000000000000e+00  0.0000000000000000e+00  0.0000000000000000e+00  0.0000000000000000e+00  0.0000000000000000e+00  0.0000000000000000e+00  0.0000000000000000e+00  0.0000000000000000e+00  0.0000000000000000e+00  0.0000000000000000e+00  0.0000000000000000e+00  0.0000000000000000e+00  0.0000000000000000e+00  0.0000000000000000e+00  0.0000000000000000e+00  0.0000000000000000e+00  0.0000000000000000e+00  0.0000000000000000e+00  0.0000000000000000e+00  0.0000000000000000e+00  0.0000000000000000e+00  0.0000000000000000e+00  0.0000000000000000e+00  0.0000000000000000e+00  0.0000000000000000e+00  0.0000000000000000e+00  0.0000000000000000e+00  0.0000000000000000e+00  0.0000000000000000e+00  0.0000000000000000e+00  0.0000000000000000e+00  0.0000000000000000e+00  0.0000000000000000e+00  0.0000000000000000e+00  0.0000000000000000e+00  0.0000000000000000e+00  0.0000000000000000e+00  0.0000000000000000e+00  0.0000000000000000e+00  0.0000000000000000e+00  0.0000000000000000e+00  0.0000000000000000e+00  0.0000000000000000e+00  0.0000000000000000e+00  0.0000000000000000e+00  0.0000000000000000e+00  0.0000000000000000e+00  0.0000000000000000e+00  0.0000000000000000e+00  0.0000000000000000e+00  0.0000000000000000e+00  0.0000000000000000e+00  0.0000000000000000e+00  0.0000000000000000e+00  0.0000000000000000e+00  0.0000000000000000e+00  0.0000000000000000e+00  0.0000000000000000e+00  0.0000000000000000e+00  0.0000000000000000e+00  0.0000000000000000e+00  0.0000000000000000e+00  0.0000000000000000e+00  0.0000000000000000e+00  0.0000000000000000e+00  0.0000000000000000e+00  0.0000000000000000e+00  0.0000000000000000e+00  0.0000000000000000e+00  0.0000000000000000e+00  0.0000000000000000e+00  0.0000000000000000e+00  0.0000000000000000e+00  0.0000000000000000e+00  0.0000000000000000e+00  0.0000000000000000e+00  0.0000000000000000e+00  0.0000000000000000e+00  0.0000000000000000e+00  0.0000000000000000e+00  0.0000000000000000e+00  0.0000000000000000e+00  0.0000000000000000e+00  0.0000000000000000e+00  0.0000000000000000e+00  0.0000000000000000e+00  0.0000000000000000e+00  0.0000000000000000e+00  0.0000000000000000e+00  0.0000000000000000e+00  0.0000000000000000e+00  0.0000000000000000e+00  0.0000000000000000e+00  0.0000000000000000e+00  0.0000000000000000e+00  0.0000000000000000e+00  0.0000000000000000e+00  0.0000000000000000e+00  0.0000000000000000e+00  0.0000000000000000e+00  0.0000000000000000e+00  0.0000000000000000e+00  0.0000000000000000e+00  0.0000000000000000e+00  0.0000000000000000e+00  0.0000000000000000e+00  0.0000000000000000e+00  0.0000000000000000e+00  0.0000000000000000e+00  0.0000000000000000e+00  0.0000000000000000e+00  0.0000000000000000e+00  0.0000000000000000e+00  0.0000000000000000e+00  0.0000000000000000e+00  0.0000000000000000e+00  0.0000000000000000e+00  0.0000000000000000e+00  0.0000000000000000e+00  0.0000000000000000e+00  0.0000000000000000e+00  0.0000000000000000e+00  0.0000000000000000e+00  0.0000000000000000e+00  0.0000000000000000e+00  0.0000000000000000e+00  0.0000000000000000e+00  0.0000000000000000e+00  0.0000000000000000e+00  0.0000000000000000e+00  0.0000000000000000e+00  0.0000000000000000e+00  0.0000000000000000e+00  0.0000000000000000e+00  0.0000000000000000e+00  0.0000000000000000e+00  0.0000000000000000e+00  0.0000000000000000e+00  0.0000000000000000e+00  0.0000000000000000e+00  0.0000000000000000e+00  0.0000000000000000e+00  0.0000000000000000e+00  0.0000000000000000e+00  0.0000000000000000e+00  0.0000000000000000e+00  0.0000000000000000e+00  0.0000000000000000e+00  0.0000000000000000e+00  0.0000000000000000e+00  0.0000000000000000e+00  0.0000000000000000e+00  0.0000000000000000e+00  0.0000000000000000e+00  0.0000000000000000e+00  0.0000000000000000e+00  0.0000000000000000e+00  0.0000000000000000e+00  0.0000000000000000e+00  0.0000000000000000e+00  0.0000000000000000e+00  0.0000000000000000e+00  0.0000000000000000e+00  0.0000000000000000e+00  0.0000000000000000e+00  0.0000000000000000e+00  0.0000000000000000e+00  0.0000000000000000e+00  0.0000000000000000e+00  0.0000000000000000e+00  0.0000000000000000e+00  0.0000000000000000e+00  0.0000000000000000e+00  0.0000000000000000e+00  0.0000000000000000e+00  0.0000000000000000e+00  0.0000000000000000e+00  0.0000000000000000e+00  0.0000000000000000e+00  0.0000000000000000e+00  0.0000000000000000e+00  0.0000000000000000e+00  0.0000000000000000e+00  0.0000000000000000e+00  0.0000000000000000e+00  0.0000000000000000e+00  0.0000000000000000e+00  0.0000000000000000e+00  0.0000000000000000e+00  0.0000000000000000e+00  0.0000000000000000e+00  0.0000000000000000e+00  0.0000000000000000e+00  0.0000000000000000e+00  0.0000000000000000e+00  0.0000000000000000e+00  0.0000000000000000e+00  0.0000000000000000e+00  0.0000000000000000e+00  0.0000000000000000e+00  0.0000000000000000e+00  0.0000000000000000e+00  0.0000000000000000e+00  0.0000000000000000e+00  0.0000000000000000e+00  0.0000000000000000e+00  0.0000000000000000e+00  0.0000000000000000e+00  0.0000000000000000e+00  0.0000000000000000e+00  0.0000000000000000e+00  0.0000000000000000e+00  0.0000000000000000e+00  0.0000000000000000e+00  0.0000000000000000e+00  0.0000000000000000e+00  0.0000000000000000e+00  0.0000000000000000e+00  0.0000000000000000e+00  0.0000000000000000e+00  0.0000000000000000e+00  0.0000000000000000e+00  0.0000000000000000e+00  0.0000000000000000e+00  -1.6729801655477252e+129  3.3335073177091791e+124  -1.9211273165906776e+125  -4.7978619552929302e+125  -1.1336941126427157e+125  -1.6467124888855111e+125  -4.3669684996023221e+122  2.4942084577229800e+120  -1.6758458312819810e+121  -1.1942382633179919e+120  -6.2580340238931764e+120  -1.8115223463981287e+129  -1.0780317118168459e+121  -3.7686500215722600e+119  9.6289496575475472e+127  1.1808858306313529e+128  -2.0037654454258622e+119  6.0876682888136769e+118  -3.2622070456360542e+115  1.8888803507556546e+119  4.1626114701888235e+117  -9.6439067431175723e+118  1.1785561428582728e+117  -2.0960774756480758e+126  -1.5391641182053528e+129  -1.5699751248000603e+128  -5.0204536504661936e+119  -1.0799602016694565e+117  5.3906479057644405e+118  7.0621095631926712e+125  1.0627071446587712e+117  1.0438884829935672e+129  -2.4818644526844283e+130  -2.1011717609004686e+128  -3.1496191799247895e+118  3.1271079938944527e+116  6.3761990616755225e+115  4.5256254209267717e+116  -7.2350526909162413e+116  3.5860551553775874e+124  -4.6238602780365369e+125  -1.7600420631761926e+120  -1.8496615848074923e+123  -2.9060903836488466e+129  -1.0177670432614412e+116  8.6409597135618036e+115  -5.4519947452191958e+115  -4.4853433036974690e+115  1.6784453860651386e+123  1.3972156437093435e+121  7.0679484044060279e+121  2.2336111505244241e+122  4.1136613766663357e+123  -2.1847411095815889e+126  -2.1091713520291084e+118  3.2479727282715626e+128  -5.3467052034027656e+114  -3.2446031525900500e+116  5.2454412890626638e+125  -7.1249830106123433e+115  -1.4899672306975351e+116  -2.6084900357207146e+120  6.1590232938991317e+115  -2.6996876505350865e+115  5.3303758852552880e+128  -3.3645627105599172e+128  7.0119776221230438e+129  2.4659662133961673e+125  1.2081450473326712e+129  6.2340263744268441e+127  4.2208123692433838e+128  -3.0082694290224565e+123  -2.3038856730412276e+123  3.4681283570864159e+122  2.8616323274541036e+121  -4.6124620907338742e+125  -9.8619021971773346e+114  3.0820842950199336e+125  -1.7229094491432503e+128  5.7446529220311054e+120  4.0919927214940369e+115  -7.4952026641738069e+124  3.0002006936812314e+115  1.0768449828991004e+115  -3.8124810402641267e+114  -2.2445091591182365e+131  1.9347405239595249e+116  -1.5958446474733236e+114  -4.1038402238478996e+114  -7.4186389791763072e+127  5.2584734490450274e+119  3.3995752521217239e+115  -1.4765604104278993e+121  -2.1270802989981281e+114  4.7404274763933958e+120  2.8030427289674179e+131  1.6125738909997554e+114  -4.7959040551390556e+115  -5.0947006362240755e+119  -4.6062745691385618e+117  3.3818735287833696e+121  3.4806559708280888e+120  7.7256111674826249e+114  2.3604237386347986e+126  -1.0400407714642690e+124  6.6162713137202646e+123  1.7668377015890459e+126  2.6672308204945025e+120  -1.2142239830668680e+120  3.2220950755044856e+114  4.6359297300952241e+125  1.1991087082061398e+117  -1.1760942911135373e+114  -1.8775894486736476e+123  1.4766752441979195e+123  -2.6090258761647946e+116  3.2647671444680156e+114  -1.8990559161411007e+114  -1.7932530930578803e+113  3.7040325117516843e+128  1.0823037160290454e+127  7.1632797919884886e+116  7.6950748881232530e+130  2.1197519439342534e+115  1.3792030372351979e+120  1.8589838411303282e+119  1.5597035277766863e+114  -1.5925357482342582e+114  1.1568120360359973e+118  -1.8437208303937746e+120  6.0047667021367518e+120  5.7693684391512029e+119  -1.4075336428889478e+123  -1.5181968988536270e+125  -3.7936676209679048e+121  -2.4474136737924718e+119  1.9597247142763218e+115  7.5417770984868782e+132  -2.1016227161947978e+126  -2.9732457023075313e+126  7.5442652497354108e+128  -2.8991478352124054e+132  -4.0530955606080695e+117  -3.8093156019688280e+128  -1.4330933494633816e+123  -6.5535738907361296e+117  -5.0152933915056147e+116  -6.9150039255352150e+126  -1.5515220846060715e+130  1.4184451541510315e+120  1.3140677437324798e+114  -7.5129660020783766e+123  5.9438428946483739e+128  7.3845772742057654e+116  -5.5486610216130881e+116  -3.9049026658536083e+114  -1.7598581663327386e+113  6.0680474174966894e+118  3.3495473344288805e+113  9.0824865263979465e+111  -1.6200330544377433e+113  1.1923375536216718e+117  -4.2785707545508768e+121  7.1400366731516598e+113  3.4806437046870711e+117  6.9850023348331762e+123  1.9058202187071981e+119  -2.5853675779721759e+115  1.0572052190942447e+113  -5.5223849525333601e+116  -6.1945001552631906e+123  -2.7509856032387556e+128  6.0836920463452633e+116  1.0847629809276073e+128  -2.4155263854995295e+113  1.9298104509842891e+124  9.1429340685212776e+113  1.5499957257919888e+118  -2.0828019874236455e+113  3.6150372804443146e+124  -2.5265001753984018e+117  -9.2304733809203386e+125  -3.3912065950739354e+121  -9.2979604087970007e+130  1.2372308486569208e+112  5.6258459785343661e+122  -3.4335119948126054e+121  -4.0700964905895891e+125  2.5890578038292972e+113  -1.1125293677766080e+116  6.2657714264203069e+113  2.7861926174395976e+129  -3.5959180445490377e+113  1.3784628118127910e+115  -1.8586748862283522e+126  -6.8098513410112630e+128  1.1197847377218881e+118  2.5337955928147854e+118  2.1927651049836035e+124  9.3155798042402894e+119  4.6543615156228393e+122  -5.3474110138749275e+122  -2.2330865090333343e+122  -1.9530746368898723e+119  4.2120820613947526e+120  5.6989606770745613e+117  -2.3967777253819796e+117  -5.4859785801281973e+127  -2.7076700313281619e+115  -1.2099186635941829e+118  -1.3323792645997571e+118  -4.2317774517495511e+127  -3.1782829159388882e+127  2.6274209709642583e+116  3.2360000532104496e+113  7.2328791216680142e+118  -1.5831982086377188e+127  2.5933469953649991e+113  7.8264510885010257e+120  6.2946442685509892e+120  -1.9014232841169298e+116  7.8447125381041083e+120  3.4103033176865423e+126  -5.5250621112770823e+121  -2.6699120065402576e+121  -1.8265155388808967e+113  5.9797256359629324e+118  1.8684338304119184e+113  3.1633661666500540e+119  8.7378884773876157e+112  -1.8060935621894853e+113  -2.9716308838369232e+112  6.1963036177278938e+113  1.8492252099264874e+116  -9.5003207260818797e+113  1.5176363842695043e+124  4.3403715115693236e+121  1.3662679424862901e+117  3.3340910120140325e+116  -1.1613178263114811e+127  -2.6932397348994602e+128  -1.1188404413983478e+122  -1.7451052786355171e+122  -3.6909530509153241e+113  -2.3171560998131101e+125  -9.2114979647384423e+116  1.1282704530812939e+113  1.1262427863707762e+113  -5.0538748452021889e+126  5.0497735001148592e+123  1.2309572123598117e+123  -3.3720158079074621e+122  -5.3716028399486333e+129  -5.4651231166501437e+128  5.9894040607853235e+114  9.6401403451053592e+127  -2.7922342964467428e+119  3.2024027668819422e+124  1.0769303001760436e+114  -8.2799710885291608e+111  2.9221898483450445e+113  2.1311827303525074e+120  6.9172018754320951e+116  -2.2769738613508527e+124  2.6899725552821436e+126  -8.8531451841688261e+126  -5.5357426898229550e+116  -1.6029093461933439e+114  -3.7576150955241204e+113  3.9013027363428420e+122  -3.5768232531525974e+111  7.0832932858453021e+128  -5.7265464952676295e+126  1.0939731165874712e+119  -7.8198718991741299e+116  -3.2430689446929500e+118  -3.3189586687153387e+129  3.8266262457724226e+127  1.0801393402102093e+126  1.1795868066511808e+125  -4.9725482404780355e+126  2.1101999522029788e+127  -2.3068665177011650e+129  -5.1444618213121816e+122  3.1355096541513661e+120  -1.2309121366880403e+118  -2.6285942212592830e+131  1.0243913891575564e+114  -1.8560470326127900e+116  -2.2191997575306667e+127  -1.2118658298426479e+130  3.4892355876924042e+126  -1.0435665320308134e+122  -1.5942081580564907e+123  -3.2430185369232131e+131  -1.5402840889183353e+114  -2.6103569344562567e+126  2.1069849864295141e+113  1.1104454174241584e+113  2.4197018073067844e+113  7.7917495495569584e+127  -1.2124208937547267e+127  -4.5060156644801878e+129  -1.1086673174096898e+130  -7.0325024373157861e+121  -1.4737846611627070e+120  -2.0825600120178253e+119  1.3816453418223672e+122  6.1910595404397644e+122  -1.8635563619739660e+121  -3.9477580631578148e+125  2.5845206262921329e+122  3.2594976692595029e+128  4.0636159371489305e+117  2.1456341420388346e+128  -2.5628045555475133e+127  1.6471363504604733e+123  -2.3817063942792117e+118  1.3750067433674818e+119  2.4985582861771291e+113  -7.6084784521629107e+117  -3.3938032743315655e+117  5.9310402077641576e+113  1.6857422518846511e+128  -3.2817673294242370e+113  3.0449648903841217e+113  -2.5208180722859673e+115  -2.4193453029676917e+127  -1.9047629267007211e+125  -1.8235629246010596e+128  -4.1599386716419410e+112  -8.6081620744024009e+118  7.3821663796047649e+120  7.9227801229539690e+125  -1.6720773915659501e+126  -1.2998929987278717e+119  1.5851921747964280e+125  -6.2797742178051271e+125  -2.2197910164038647e+132  -3.1816862730178333e+119  -1.6239026499395614e+117  -2.2459620606264781e+123  4.2226206260386416e+114  1.4727103780833385e+115  -6.6990188345225590e+120  1.0067858085394183e+113  1.4588648979341819e+117  7.4062809740947074e+118  -1.0589519599777519e+112  8.9525378608679505e+119  -1.1942582561374743e+121  -3.4370357163619175e+113  -5.1111020193795977e+115  1.7638014627483379e+112  -6.2463472418185565e+116  1.3020495468366422e+116  5.1609022580136690e+121  -2.5861564841099604e+130  1.9211664002967537e+114  1.5817917479149152e+128  -2.3983435849046597e+129  2.4220660921267640e+117  4.2392890823576017e+113  -3.2629128440010857e+122  -3.1853954467582460e+115  -5.1256310294581855e+130  1.9046827418423393e+115  3.3103888146875419e+118  -5.3801680176357360e+128  6.9581153165821495e+115  8.6984706380481301e+111  1.1593013642454372e+112  -1.1946785529952294e+117  -4.2399080515035522e+126  6.2956004059456414e+125  -5.4096199034601275e+119  -1.7697727355124458e+116  8.8451900835090043e+129  -3.3667014816026215e+121  9.0656997205364756e+112  2.8833638508964825e+124  -1.1681181859901748e+113  -2.6803352904011580e+115  5.7878349916460680e+124  7.3146547420632606e+112  -3.5659673701936453e+131  5.2814806642235562e+113  -3.8699986608479745e+116  -3.6381894368695753e+111  -2.9729489333358493e+125  4.0159971492339720e+121  -1.0266710760977155e+118  6.7957200620146103e+123  3.6970198210908518e+111  -1.9460896865429060e+117  -1.5321234846541984e+126  -1.0116979822933333e+115  6.4970158503838248e+123  1.8967625646479269e+119  -3.6062561652003193e+110  4.1754042400232387e+111  -5.2506277534502936e+124  -1.1177589475050494e+115  1.3747259226464220e+126  1.2352715346707200e+117  -1.5344651771036064e+126  -8.1873354764235998e+121  7.7780861368032938e+112  -4.6794860669625472e+115  -5.6671534869793260e+116  -6.2120733972314486e+115  -2.1242108593953837e+115  -6.0919754494757639e+127  4.6362041184065648e+128  -1.3495657480549557e+132  -6.3087877909602766e+127  8.1938174778672447e+116  -2.6345191143815503e+130  1.8499400998661059e+127  3.5004208227415886e+115  2.8125103631038076e+111  3.0004246640002602e+112  1.6364234272239634e+121  1.1701196283788622e+120  7.9042834389500009e+117  9.4929643817507955e+126  6.9472641178775039e+119  1.9367334326031227e+113  -1.0967895546544019e+112  -1.2649502300877412e+113  -1.9687145586881123e+121  7.6660400739095893e+115  -1.0579917934426757e+119  -3.6656722993025274e+115  -8.9538323563299349e+114  7.3446553194519331e+115  -4.3255091341373565e+121  -1.4757157984568846e+115  -3.4343577583814270e+124  2.5826742254614221e+123  -1.0280473183089495e+124  1.2058068565840327e+122  5.6976124912349832e+123  -5.9398289997332915e+124  -1.7771110576410850e+116  -1.4308690041121314e+127  -2.6513786526969837e+117  3.4712607664208187e+130  -4.7362190824379514e+120  -6.8172685111371698e+125  -2.6846375070724330e+123  -6.4369003560711919e+130  -2.3496129242574025e+116  1.4108951389573187e+113  -2.0394697401861734e+115  -2.5525159523617071e+129  -4.4820743624415729e+119  3.3267928716343892e+124  2.9924735958919911e+124  -9.0279974235614246e+114  1.2226236896474944e+122  5.0477677861336289e+112  5.6630591333111360e+130  6.1633327758959242e+130  -5.0119020972467532e+127  -1.8821798052704606e+118  1.5998322161697469e+116  -1.2315563577787976e+116  -5.3349968513960672e+119  -6.6206312004191838e+120  -5.5628846461134679e+123  -1.2462866410298136e+115  -1.8753450102064537e+125  -8.4545995630117299e+122  -4.5154065377571704e+117  6.4380760240571153e+130  7.2694311490010490e+117  1.0208087695678411e+124  2.7310669273726653e+120  1.5167239318895636e+122  1.7250425305795824e+120  -4.4098437401707797e+115  -1.2878322982151287e+112  9.2265858742150653e+115  1.69434