<?xml version="1.0"?>
<VTKFile type="UnstructuredGrid"  version="0.1"  >
<UnstructuredGrid>
<Piece  NumberOfPoints="20054" NumberOfCells="39478">
<Points>
<DataArray  type="Float64"  NumberOfComponents="3"  format="ascii">1 0 0  0.9997998037428526 0.02000880895389431 0  0.9991992951284931 0.04000960653046352 0  0.9981987145960756 0.05999438456007805 0  0.9967984627705549 0.07995514128721501 0  0.9949991003022806 0.09988388457430118 0  0.9928013476425149 0.1197726351017051 0  0.9902060847549715 0.139613429562597 0  0.987214350763483 0.1593983238513969 0  0.9838273435359444 0.1791193962445356 0  0.9800464192046954 0.198768750572253 0  0.9758730916235354 0.2183385193801655 0  0.9713090317615876 0.237820867079336 0  0.9663560670342555 0.2572079930835849 0  0.9610161805715396 0.2764921349327862 0  0.9552915104240066 0.2956655714008991 0  0.9491843487067304 0.3147206255874884 0  0.9426971406815462 0.3336496679914983 0  0.9358324837779861 0.3524451195660473 0  0.9285931265532873 0.3710994547530225 0  0.9209819675918909 0.3896052044962556 0  0.9130020543448703 0.4079549592320781 0  0.9046565819097542 0.4261413718560547 0  0.8959488917512338 0.4441571606647087 0  0.8868824703632656 0.4619951122710622 0  0.8774609478731046 0.4796480844928215 0  0.8676880965878291 0.4971090092120542 0  0.8575678294839372 0.5143708952052096 0  0.8471041986406199 0.5314268309423539 0  0.8363013936173391 0.5482699873544935 0  0.8251637397763597 0.5648936205678837 0  0.8136956965509062 0.5812910746042258 0  0.8019018556596399 0.5974557840456699 0  0.7897869392681683 0.6133812766635599 0  0.777355798098326 0.6290611760098652 0  0.7646134094859813 0.6444892039702628 0  0.7515648753881492 0.6596591832778468 0  0.7382154203402046 0.6745650399864606 0  0.7245703893640189 0.6892008059026586 0  0.7106352458278521 0.7035606209753273 0  0.6964155692588616 0.7176387356420051 0  0.6819170531091018 0.7314295131309636 0  0.6671455024759069 0.7449274317181303 0  0.6521068317775753 0.7581270869379442 0  0.6368070623852795 0.7710231937472638 0  0.6212523202121545 0.7836105886414595 0  0.6054488332605282 0.795884231721841 0  0.5894029291282759 0.8078392087135958 0  0.5731210324752972 0.8194707329334278 0  0.5566096624511305 0.8307741472061095 0  0.5398754300847343 0.8417449257291802 0  0.5229250356374803 0.8523786758850435 0  0.5057652659204196 0.8626711399997378 0  0.4884029915768944 0.8726181970476778 0  0.4708451643315825 0.8822158643016828 0  0.45309881420708 0.8914602989276292 0  0.4351710467091336 0.9003477995230937 0  0.4170690399816468 0.9088748075993677 0  0.398800041932607 0.9170379090062476 0  0.3803713673320772 0.9248338352990368 0  0.3617903948834157 0.9322594650472057 0  0.3430645642688987 0.9393118250841893 0  0.3242013731709288 0.9459880916978206 0  0.3052083742700172 0.952285591760924 0  0.2860931722207478 0.9582018038016155 0  0.2668634206069304 0.963734359012881 0  0.2475268188771628 0.9688810422010291 0  0.2280911092620296 0.9736397926726377 0  0.2085640736741707 0.9780087050596407 0  0.1889535305924618 0.9819860300822225 0  0.1692673319315541 0.9855701752492174 0  0.1495133598980264 0.9887597054957302 0  0.1296995238344084 0.9915533437577263 0  0.1098337570523395 0.9939499714833577 0  0.08992401365612977 0.9959486290808237 0  0.06997826535799723 0.9975485163025836 0  0.05000449828625179 0.9987489925657699 0  0.03001070978771124 0.9995495772086734 0  0.01000490522562346 0.9999499496831961 0  -0.01000490522562333 0.9999499496831961 0  -0.03001070978771133 0.9995495772086734 0  -0.05000449828625144 0.9987489925657699 0  -0.06997826535799688 0.9975485163025836 0  -0.08992401365612987 0.9959486290808237 0  -0.1098337570523394 0.9939499714833577 0  -0.1296995238344082 0.9915533437577263 0  -0.1495133598980262 0.9887597054957303 0  -0.1692673319315537 0.9855701752492174 0  -0.1889535305924614 0.9819860300822226 0  -0.2085640736741705 0.9780087050596407 0  -0.2280911092620295 0.9736397926726377 0  -0.2475268188771627 0.9688810422010291 0  -0.2668634206069302 0.9637343590128811 0  -0.2860931722207475 0.9582018038016156 0  -0.3052083742700173 0.9522855917609239 0  -0.3242013731709289 0.9459880916978205 0  -0.3430645642688986 0.9393118250841894 0  -0.3617903948834154 0.9322594650472058 0  -0.380371367332077 0.924833835299037 0  -0.3988000419326071 0.9170379090062476 0  -0.4170690399816465 0.9088748075993678 0  -0.4351710467091335 0.9003477995230939 0  -0.4530988142070799 0.8914602989276292 0  -0.4708451643315824 0.8822158643016829 0  -0.4884029915768945 0.8726181970476778 0  -0.5057652659204197 0.8626711399997378 0  -0.5229250356374801 0.8523786758850437 0  -0.5398754300847342 0.8417449257291804 0  -0.5566096624511303 0.8307741472061098 0  -0.5731210324752971 0.8194707329334279 0  -0.589402929128276 0.8078392087135957 0  -0.6054488332605281 0.7958842317218411 0  -0.6212523202121542 0.7836105886414597 0  -0.6368070623852793 0.7710231937472639 0  -0.652106831777575 0.7581270869379444 0  -0.6671455024759069 0.7449274317181304 0  -0.6819170531091018 0.7314295131309636 0  -0.6964155692588616 0.7176387356420052 0  -0.7106352458278521 0.7035606209753273 0  -0.7245703893640187 0.6892008059026588 0  -0.7382154203402043 0.6745650399864608 0  -0.751564875388149 0.6596591832778469 0  -0.7646134094859813 0.6444892039702628 0  -0.7773557980983258 0.6290611760098654 0  -0.7897869392681683 0.6133812766635599 0  -0.8019018556596398 0.59745578404567 0  -0.8136956965509062 0.5812910746042258 0  -0.8251637397763595 0.5648936205678839 0  -0.836301393617339 0.5482699873544935 0  -0.8471041986406197 0.5314268309423542 0  -0.8575678294839372 0.5143708952052097 0  -0.8676880965878292 0.497109009212054 0  -0.8774609478731045 0.4796480844928216 0  -0.8868824703632656 0.4619951122710621 0  -0.8959488917512338 0.4441571606647088 0  -0.904656581909754 0.426141371856055 0  -0.9130020543448703 0.4079549592320783 0  -0.920981967591891 0.3896052044962555 0  -0.9285931265532872 0.3710994547530226 0  -0.9358324837779861 0.3524451195660473 0  -0.9426971406815462 0.3336496679914984 0  -0.9491843487067303 0.3147206255874888 0  -0.9552915104240065 0.2956655714008993 0  -0.9610161805715396 0.2764921349327862 0  -0.9663560670342555 0.2572079930835851 0  -0.9713090317615876 0.2378208670793361 0  -0.9758730916235353 0.2183385193801658 0  -0.9800464192046954 0.198768750572253 0  -0.9838273435359444 0.1791193962445354 0  -0.987214350763483 0.159398323851397 0  -0.9902060847549714 0.1396134295625972 0  -0.9928013476425149 0.1197726351017052 0  -0.9949991003022804 0.09988388457430147 0  -0.9967984627705549 0.07995514128721509 0  -0.9981987145960756 0.05999438456007793 0  -0.9991992951284931 0.04000960653046362 0  -0.9997998037428526 0.02000880895389464 0  -1 1.224646799147353e-16 0  -0.9997998037428526 -0.0200088089538944 0  -0.9991992951284931 -0.04000960653046338 0  -0.9981987145960756 -0.05999438456007812 0  -0.9967984627705549 -0.07995514128721484 0  -0.9949991003022806 -0.09988388457430078 0  -0.9928013476425149 -0.1197726351017049 0  -0.9902060847549715 -0.1396134295625965 0  -0.9872143507634831 -0.1593983238513963 0  -0.9838273435359444 -0.1791193962445356 0  -0.9800464192046953 -0.1987687505722532 0  -0.9758730916235354 -0.2183385193801655 0  -0.9713090317615876 -0.2378208670793363 0  -0.9663560670342556 -0.2572079930835848 0  -0.9610161805715396 -0.276492134932786 0  -0.9552915104240066 -0.2956655714008991 0  -0.9491843487067305 -0.3147206255874881 0  -0.9426971406815464 -0.3336496679914978 0  -0.9358324837779862 -0.3524451195660471 0  -0.9285931265532875 -0.371099454753022 0  -0.9209819675918909 -0.3896052044962557 0  -0.9130020543448704 -0.407954959232078 0  -0.9046565819097541 -0.4261413718560548 0  -0.8959488917512338 -0.4441571606647086 0  -0.8868824703632655 -0.4619951122710623 0  -0.8774609478731046 -0.4796480844928214 0  -0.8676880965878293 -0.4971090092120538 0  -0.8575678294839373 -0.5143708952052095 0  -0.84710419864062 -0.5314268309423537 0  -0.8363013936173395 -0.5482699873544929 0  -0.8251637397763596 -0.5648936205678838 0  -0.8136956965509061 -0.5812910746042259 0  -0.8019018556596399 -0.5974557840456699 0  -0.7897869392681682 -0.61338127666356 0  -0.777355798098326 -0.6290611760098652 0  -0.7646134094859816 -0.6444892039702625 0  -0.7515648753881492 -0.6596591832778468 0  -0.7382154203402048 -0.6745650399864603 0  -0.7245703893640192 -0.6892008059026583 0  -0.7106352458278522 -0.7035606209753272 0  -0.6964155692588621 -0.7176387356420046 0  -0.6819170531091017 -0.7314295131309637 0  -0.667145502475907 -0.7449274317181303 0  -0.6521068317775756 -0.758127086937944 0  -0.6368070623852792 -0.7710231937472641 0  -0.6212523202121544 -0.7836105886414596 0  -0.6054488332605283 -0.795884231721841 0  -0.5894029291282762 -0.8078392087135956 0  -0.5731210324752977 -0.8194707329334274 0  -0.5566096624511304 -0.8307741472061095 0  -0.5398754300847344 -0.8417449257291802 0  -0.5229250356374798 -0.8523786758850437 0  -0.5057652659204195 -0.8626711399997379 0  -0.4884029915768943 -0.872618197047678 0  -0.4708451643315825 -0.8822158643016828 0  -0.4530988142070805 -0.8914602989276289 0  -0.4351710467091333 -0.900347799523094 0  -0.4170690399816467 -0.9088748075993677 0  -0.3988000419326073 -0.9170379090062475 0  -0.3803713673320777 -0.9248338352990366 0  -0.3617903948834162 -0.9322594650472055 0  -0.3430645642688988 -0.9393118250841893 0  -0.3242013731709283 -0.9459880916978207 0  -0.3052083742700169 -0.9522855917609241 0  -0.2860931722207477 -0.9582018038016155 0  -0.2668634206069305 -0.963734359012881 0  -0.2475268188771631 -0.968881042201029 0  -0.2280911092620301 -0.9736397926726376 0  -0.2085640736741706 -0.9780087050596407 0  -0.1889535305924619 -0.9819860300822225 0  -0.1692673319315544 -0.9855701752492173 0  -0.1495133598980269 -0.9887597054957302 0  -0.1296995238344092 -0.9915533437577262 0  -0.1098337570523396 -0.9939499714833577 0  -0.08992401365612945 -0.9959486290808237 0  -0.06997826535799691 -0.9975485163025836 0  -0.05000449828625168 -0.9987489925657699 0  -0.030010709787
[...]
<PointData  Scalars="Displacement"> 
<DataArray  type="Float64"  Name="Displacement"  format="ascii">0.0000000000000000e+00  0.0000000000000000e+00  0.0000000000000000e+00  0.0000000000000000e+00  0.0000000000000000e+00  0.0000000000000000e+00  0.0000000000000000e+00  0.0000000000000000e+00  0.0000000000000000e+00  0.0000000000000000e+00  0.0000000000000000e+00  0.0000000000000000e+00  0.0000000000000000e+00  0.0000000000000000e+00  0.0000000000000000e+00  0.0000000000000000e+00  0.0000000000000000e+00  0.0000000000000000e+00  0.0000000000000000e+00  0.0000000000000000e+00  0.0000000000000000e+00  0.0000000000000000e+00  0.0000000000000000e+00  0.0000000000000000e+00  0.0000000000000000e+00  0.0000000000000000e+00  0.0000000000000000e+00  0.0000000000000000e+00  0.0000000000000000e+00  0.0000000000000000e+00  0.0000000000000000e+00  0.0000000000000000e+00  0.0000000000000000e+00  0.0000000000000000e+00  0.0000000000000000e+00  0.0000000000000000e+00  0.0000000000000000e+00  0.0000000000000000e+00  0.0000000000000000e+00  0.0000000000000000e+00  0.0000000000000000e+00  0.0000000000000000e+00  0.0000000000000000e+00  0.0000000000000000e+00  0.0000000000000000e+00  0.0000000000000000e+00  0.0000000000000000e+00  0.0000000000000000e+00  0.0000000000000000e+00  0.0000000000000000e+00  0.0000000000000000e+00  0.0000000000000000e+00  0.0000000000000000e+00  0.0000000000000000e+00  0.0000000000000000e+00  0.0000000000000000e+00  0.0000000000000000e+00  0.0000000000000000e+00  0.0000000000000000e+00  0.0000000000000000e+00  0.0000000000000000e+00  0.0000000000000000e+00  0.0000000000000000e+00  0.0000000000000000e+00  0.0000000000000000e+00  0.0000000000000000e+00  0.0000000000000000e+00  0.0000000000000000e+00  0.0000000000000000e+00  0.0000000000000000e+00  0.0000000000000000e+00  0.0000000000000000e+00  0.0000000000000000e+00  0.0000000000000000e+00  0.0000000000000000e+00  0.0000000000000000e+00  0.0000000000000000e+00  0.0000000000000000e+00  0.0000000000000000e+00  0.0000000000000000e+00  0.0000000000000000e+00  0.0000000000000000e+00  0.0000000000000000e+00  0.0000000000000000e+00  0.0000000000000000e+00  0.0000000000000000e+00  0.0000000000000000e+00  0.0000000000000000e+00  0.0000000000000000e+00  0.0000000000000000e+00  0.0000000000000000e+00  0.0000000000000000e+00  0.0000000000000000e+00  0.0000000000000000e+00  0.0000000000000000e+00  0.0000000000000000e+00  0.0000000000000000e+00  0.0000000000000000e+00  0.0000000000000000e+00  0.0000000000000000e+00  0.0000000000000000e+00  0.0000000000000000e+00  0.0000000000000000e+00  0.0000000000000000e+00  0.0000000000000000e+00  0.0000000000000000e+00  0.0000000000000000e+00  0.0000000000000000e+00  0.0000000000000000e+00  0.0000000000000000e+00  0.0000000000000000e+00  0.0000000000000000e+00  0.0000000000000000e+00  0.0000000000000000e+00  0.0000000000000000e+00  0.0000000000000000e+00  0.0000000000000000e+00  0.0000000000000000e+00  0.0000000000000000e+00  0.0000000000000000e+00  0.0000000000000000e+00  0.0000000000000000e+00  0.0000000000000000e+00  0.0000000000000000e+00  0.0000000000000000e+00  0.0000000000000000e+00  0.0000000000000000e+00  0.0000000000000000e+00  0.0000000000000000e+00  0.0000000000000000e+00  0.0000000000000000e+00  0.0000000000000000e+00  0.0000000000000000e+00  0.0000000000000000e+00  0.0000000000000000e+00  0.0000000000000000e+00  0.0000000000000000e+00  0.0000000000000000e+00  0.0000000000000000e+00  0.0000000000000000e+00  0.0000000000000000e+00  0.0000000000000000e+00  0.0000000000000000e+00  0.0000000000000000e+00  0.0000000000000000e+00  0.0000000000000000e+00  0.0000000000000000e+00  0.0000000000000000e+00  0.0000000000000000e+00  0.0000000000000000e+00  0.0000000000000000e+00  0.0000000000000000e+00  0.0000000000000000e+00  0.0000000000000000e+00  0.0000000000000000e+00  0.0000000000000000e+00  0.0000000000000000e+00  0.0000000000000000e+00  0.0000000000000000e+00  0.0000000000000000e+00  0.0000000000000000e+00  0.0000000000000000e+00  0.0000000000000000e+00  0.0000000000000000e+00  0.0000000000000000e+00  0.0000000000000000e+00  0.0000000000000000e+00  0.0000000000000000e+00  0.0000000000000000e+00  0.0000000000000000e+00  0.0000000000000000e+00  0.0000000000000000e+00  0.0000000000000000e+00  0.0000000000000000e+00  0.0000000000000000e+00  0.0000000000000000e+00  0.0000000000000000e+00  0.0000000000000000e+00  0.0000000000000000e+00  0.0000000000000000e+00  0.0000000000000000e+00  0.0000000000000000e+00  0.0000000000000000e+00  0.0000000000000000e+00  0.0000000000000000e+00  0.0000000000000000e+00  0.0000000000000000e+00  0.0000000000000000e+00  0.0000000000000000e+00  0.0000000000000000e+00  0.0000000000000000e+00  0.0000000000000000e+00  0.0000000000000000e+00  0.0000000000000000e+00  0.0000000000000000e+00  0.0000000000000000e+00  0.0000000000000000e+00  0.0000000000000000e+00  0.0000000000000000e+00  0.0000000000000000e+00  0.0000000000000000e+00  0.0000000000000000e+00  0.0000000000000000e+00  0.0000000000000000e+00  0.0000000000000000e+00  0.0000000000000000e+00  0.0000000000000000e+00  0.0000000000000000e+00  0.0000000000000000e+00  0.0000000000000000e+00  0.0000000000000000e+00  0.0000000000000000e+00  0.0000000000000000e+00  0.0000000000000000e+00  0.0000000000000000e+00  0.0000000000000000e+00  0.0000000000000000e+00  0.0000000000000000e+00  0.0000000000000000e+00  0.0000000000000000e+00  0.0000000000000000e+00  0.0000000000000000e+00  0.0000000000000000e+00  0.0000000000000000e+00  0.0000000000000000e+00  0.0000000000000000e+00  0.0000000000000000e+00  0.0000000000000000e+00  0.0000000000000000e+00  0.0000000000000000e+00  0.0000000000000000e+00  0.0000000000000000e+00  0.0000000000000000e+00  0.0000000000000000e+00  0.0000000000000000e+00  0.0000000000000000e+00  0.0000000000000000e+00  0.0000000000000000e+00  0.0000000000000000e+00  0.0000000000000000e+00  0.0000000000000000e+00  0.0000000000000000e+00  0.0000000000000000e+00  0.0000000000000000e+00  0.0000000000000000e+00  0.0000000000000000e+00  0.0000000000000000e+00  0.0000000000000000e+00  0.0000000000000000e+00  0.0000000000000000e+00  0.0000000000000000e+00  0.0000000000000000e+00  0.0000000000000000e+00  0.0000000000000000e+00  0.0000000000000000e+00  0.0000000000000000e+00  0.0000000000000000e+00  0.0000000000000000e+00  0.0000000000000000e+00  0.0000000000000000e+00  0.0000000000000000e+00  0.0000000000000000e+00  0.0000000000000000e+00  0.0000000000000000e+00  0.0000000000000000e+00  0.0000000000000000e+00  0.0000000000000000e+00  0.0000000000000000e+00  0.0000000000000000e+00  0.0000000000000000e+00  0.0000000000000000e+00  0.0000000000000000e+00  0.0000000000000000e+00  0.0000000000000000e+00  0.0000000000000000e+00  0.0000000000000000e+00  0.0000000000000000e+00  0.0000000000000000e+00  0.0000000000000000e+00  0.0000000000000000e+00  0.0000000000000000e+00  0.0000000000000000e+00  0.0000000000000000e+00  0.0000000000000000e+00  0.0000000000000000e+00  0.0000000000000000e+00  0.0000000000000000e+00  0.0000000000000000e+00  0.0000000000000000e+00  0.0000000000000000e+00  0.0000000000000000e+00  0.0000000000000000e+00  0.0000000000000000e+00  0.0000000000000000e+00  0.0000000000000000e+00  0.0000000000000000e+00  0.0000000000000000e+00  0.0000000000000000e+00  0.0000000000000000e+00  0.0000000000000000e+00  0.0000000000000000e+00  0.0000000000000000e+00  0.0000000000000000e+00  0.0000000000000000e+00  0.0000000000000000e+00  0.0000000000000000e+00  0.0000000000000000e+00  0.0000000000000000e+00  0.0000000000000000e+00  0.0000000000000000e+00  0.0000000000000000e+00  0.0000000000000000e+00  0.0000000000000000e+00  0.0000000000000000e+00  -1.7027961955491200e+24  2.0068571615643395e+17  1.4016953119793437e+19  -1.3986964832048101e+19  1.1497152035125015e+19  -1.0420366688118326e+18  -2.5639691105955628e+16  1.1202171043174117e+14  5.8461795009003844e+13  -1.1150016572606812e+11  5.4530759340600850e+12  7.8108765045401124e+22  -8.5400296459668604e+11  -1.4746365887995032e+11  -9.2088801686358481e+24  1.6391690217451077e+25  -4.0056483956657997e+10  -3.0463416342234564e+09  -4.3245618663791595e+10  -1.5835498028259598e+10  -1.0784052328222116e+10  -3.1652067679279732e+10  1.4467458478652816e+09  -2.5185116969438035e+21  1.6583084019798833e+21  2.0245369330739040e+24  -5.2146894471825104e+10  -2.2513710960040519e+08  -9.7986283319339991e+08  3.9908711257755607e+19  1.0202653966912031e+09  -2.5455174671542536e+25  3.9786236134862405e+25  2.6527421514063925e+19  -3.5347659019578373e+08  -3.8466829741495280e+06  -1.8329848151571013e+07  1.6542673736976446e+06  2.4225000990868762e+07  -2.5155891225117972e+16  -7.1228912996861200e+16  1.0283362822591854e+16  2.5483493197523735e+15  2.5934138382572699e+25  -7.8744124026737371e+06  3.7739574105235022e+06  -8.3427814612090141e+06  -8.8563774491261318e+06  -3.3681267358767100e+15  4.8193287249248930e+15  -1.2190118927489941e+12  1.6797385760147254e+17  3.0547128822264448e+16  -8.5415895096773939e+18  -2.0225935235921438e+06  2.8464074486128867e+24  -1.5541199466676077e+07  4.7210181670467736e+05  4.6323467013600408e+22  -3.8074285815676115e+06  -6.9328328731613350e+05  -1.1381634330940984e+12  -2.6451659197912370e+06  -5.2674195363945970e+06  -1.2598644866767596e+24  1.5816540886938199e+25  -4.3626958366636079e+22  4.1907473770795827e+19  4.2779477803268524e+21  3.9213473430391847e+24  -1.7932959768170482e+23  -3.5530473962702275e+15  -2.2965579244711956e+14  1.1711183183300612e+14  7.5945884037193750e+13  4.2447349068403311e+22  6.7609935944195557e+05  6.8673405427094344e+18  1.0802951949832785e+23  -5.5265618839102305e+12  2.0712491613435157e+05  -1.1195022166361485e+21  -6.5289907105371174e+04  -2.7143949076309516e+04  -2.3998893072648550e+05  1.1733315871746613e+26  -7.4910246298065569e+04  -6.5322349844500226e+04  1.9285457229019579e+04  3.4059515259657707e+22  -8.4740408104189240e+10  2.7955572830803890e+03  1.2283606834539328e+14  1.0074355737663271e+05  -2.2388401877046381e+11  2.8765945916764765e+25  -5.4826571149684920e+05  2.6184711380984908e+05  -8.0017528573775732e+11  -6.6886873856162402e+11  1.3185893741761500e+13  -4.2097008033448535e+12  1.3408596370174605e+05  5.5023432404785717e+19  1.3989530015147936e+17  1.1187501440244685e+17  8.9581589776839459e+19  -6.2780484022537366e+11  2.0146038957947455e+11  -3.6989365443146678e+04  -1.0416215541632299e+19  2.0862580735855445e+04  -7.2028111650041479e+04  -4.3883879635538495e+15  -1.2968477845746408e+15  1.0483784481379683e+12  1.5783868234967984e+04  9.3742137633329748e+03  -8.4788061451968297e+03  4.8193240815838788e+25  2.2501153669176033e+19  3.0390273868949890e+08  -3.0520519361357084e+24  -1.0821992174695651e+06  -1.4003769628052673e+11  -2.3364845101264556e+12  -7.4905686856286479e+02  1.0550492840680345e+04  -2.8876109470192736e+08  7.0724170674448977e+09  -2.8306855202597973e+13  1.4791516903159659e+11  -3.9072145417076675e+14  -3.3145032722751783e+19  -6.2739237412323690e+15  2.3690435396066751e+11  -5.1832579450092388e+04  -3.9978306948700044e+25  3.4049238325657264e+22  -3.2310590880183476e+24  -5.2186234448417701e+24  2.9362195409296770e+25  2.6748013995142335e+08  -5.6608012463878819e+20  6.9115622239454630e+15  3.2890418057406491e+08  7.4886013242211199e+08  -3.3192031580333263e+24  2.6756990527093747e+26  1.4237671720636938e+13  5.6174051340149244e+03  -7.0172105851997070e+15  1.0503516954056173e+22  -2.7588870987472095e+09  -4.4358114225852919e+08  5.4314683783460436e+06  2.4990019146033351e+03  -4.3508813317230523e+08  -2.9848590299960679e+03  7.5899757462403784e+02  -4.3873069396801138e+03  2.0928714542561772e+08  -8.7086938715536855e+12  2.7419672200201167e+04  6.4228364590748437e+07  -4.0192528857642342e+17  -4.5033284057209545e+08  4.1212154228560437e+04  -1.2220691400059873e+03  -1.1668281379800580e+09  -8.9155137928817470e+15  -4.2198408316839968e+24  1.8561746100961888e+08  -2.6595014689825835e+21  -1.6448826122289100e+02  7.5871323572622983e+19  -2.1649412790631714e+03  4.7402447230652985e+10  3.5200725052590407e+01  -1.4891793605018397e+19  -1.8275999976871523e+08  7.1035532491052301e+17  5.0973118545123138e+14  1.9710871375861253e+26  1.4381016015296680e+04  -6.8336261842154656e+16  -2.5325122852751758e+13  2.1657243770066895e+19  -1.3108801561088854e+04  1.9985877639650859e+07  5.7610732236969870e+03  -4.3751803770019268e+25  2.6686164625411334e+02  -7.0486914867899377e+03  -3.5013044822601392e+16  1.4635267634353442e+22  2.2307922658671689e+09  4.7409381625182313e+08  1.1087376673962459e+18  7.6556620486462217e+12  1.2541813220801545e+15  8.4511453490537980e+15  4.7377938106310717e+18  -3.2573787255283031e+13  2.0930810621331942e+15  1.4671560223396239e+08  -2.4918798986363354e+08  5.3255516882771440e+24  -1.1790410026009782e+05  -8.1632728342798090e+08  -2.2962647418443531e+10  -1.5838565748743119e+25  -6.3842721938715357e+24  7.4524152620188386e+02  -1.1099600053452523e+03  2.9383497520966089e+08  4.6820119191823229e+19  -1.2031389259364469e+04  -3.3668739173788047e+13  -3.1996406971259938e+13  7.3350282640050713e+05  -8.7494223110097070e+11  1.6569752116559841e+21  3.5179099184061400e+14  7.2221570135187559e+12  2.7515110193795972e+03  3.9813374349095222e+10  8.1876214487249104e+02  -1.4391666246550984e+13  -7.6224924595795428e+03  1.2064757987333722e+04  -2.8633548620584352e+03  -4.9069340147432774e+02  3.2015891490530139e+06  2.9543138186790026e+02  -3.2442360177099617e+18  1.3364332140551910e+15  9.4336724816384256e+07  -2.2268390403338204e+05  1.9043583431848497e+25  -7.6384819634889532e+23  -1.3147140228743317e+14  -1.2088246544151750e+14  -4.5616735246335811e+03  4.4450125118355309e+17  2.3261355902565447e+03  -3.5227563047872616e+02  -1.9262890336787077e+03  1.1843241240266914e+21  1.1092472849399077e+19  -5.0854658899120992e+16  5.5556318889906632e+16  -1.5842955346034584e+25  1.2274871957877256e+25  -3.9930614600890286e+07  2.3185915040028172e+21  -1.9925523095903306e+09  3.8463612897073016e+16  9.9916502211253305e+02  -1.4496752732898944e+03  -1.0100280371677114e+03  6.5421199504655859e+11  -1.7472022326418456e+07  8.8660902894136100e+15  1.5592988028552081e+19  8.8771678130336970e+20  -1.3125625901918378e+07  -2.8895362795861456e+04  -7.8506907601978428e+03  -7.7423395348000820e+15  -3.7446760738095679e+02  -2.5158929947615727e+21  5.7443474476878414e+19  -5.0187538330116160e+07  4.1341748343588337e+07  1.3837312698516226e+11  8.4347925289824573e+22  7.0614136040713966e+22  -2.7030688769560381e+21  1.8025259265949753e+22  1.2545035060423534e+23  -3.0710999519279428e+24  1.3685426488989959e+26  -1.5960954762801955e+13  5.6531395186894897e+11  -1.6580913432246487e+10  6.7141352879315873e+24  -1.4567742246525506e+03  1.9513140003074978e+07  -1.3680463131638081e+20  3.9378942170794502e+25  -2.7840574686076379e+19  -4.7333584985043461e+13  -5.9415712106286176e+16  -2.2982959224768769e+24  1.8426930639618479e+02  -2.6665142751897869e+17  4.2531824844704752e+03  4.9412619861234998e+02  4.3404742827965338e+03  -1.2353930966914532e+24  3.5349379812971769e+24  8.2498206396193642e+23  -6.2958341601187317e+24  1.2486753479806843e+12  -2.5351894736641410e+13  4.0483877911660179e+10  4.8018946595288930e+15  -1.9290364111783242e+13  -2.4622731356759152e+13  5.0313078089878317e+17  3.7544353032737219e+13  1.2676449560602358e+23  -6.4208411618675308e+09  9.0636001404242391e+24  1.1998836852222817e+24  4.0546252280506115e+15  4.2996482244740135e+10  1.3443878240753963e+11  4.5985052081232105e+01  -4.3037156305827588e+08  -3.3285142857500701e+09  8.1338750631320397e+02  -7.1850872002337552e+22  -8.5671137989253751e+01  2.9795645914378878e+02  4.1507503779397598e+06  5.9134337315103153e+20  1.0347417111419169e+22  6.0891968542676162e+24  -1.0805736038544405e+03  6.4343177262029961e+10  -1.6094308124124084e+12  -5.8186777248568474e+18  9.8330693473734461e+21  -5.9255013770964928e+09  3.0750017712223680e+16  -1.7702931959010384e+23  4.4347514557100644e+25  -2.1514020011458102e+11  -1.6767344487888327e+07  -5.2629228064594862e+18  6.6443551260738191e+05  -1.0925135363906173e+06  -6.6000168418318005e+11  -6.3930930506561992e+02  -1.5963283201090354e+08  5.0071798832908481e+07  3.7729542156087876e+02  -1.7581418031586342e+10  -4.8507271917019082e+12  -1.2829725825837015e+03  -1.1626585558326999e+06  -3.5686538930776244e+01  5.8224042335281975e+05  -8.1814177606101576e+06  -9.9295768688678988e+14  1.2482676097095607e+25  -4.5160425936363824e+06  3.4792378403256538e+24  2.9120784156467190e+23  3.8117579991877489e+09  4.3029091641651678e+02  -1.4364652862815982e+15  -2.4834460463942867e+06  4.5355693236168401e+23  -2.4782127709531356e+05  1.3683412094542648e+11  -7.1582202281654780e+24  -1.5635425905778813e+08  1.7396359822242579e+02  2.9677499883942768e+04  -2.7335603389693522e+08  2.6535828118155200e+22  -6.1035680197175267e+20  1.3486902607844200e+10  1.1334108601657476e+03  -1.0620004955759416e+25  3.9132393662430150e+14  -5.7750160793114367e+02  -5.6242731309296467e+17  2.5052461383017013e+02  1.3280945841782412e+06  -2.4948844642224850e+18  -3.1088166030030357e+03  5.9319441194422037e+25  -1.0726429796792951e+01  -1.4074180436385885e+08  -2.7900861829785049e+02  -8.6382400251284449e+20  -7.8754796492297656e+13  4.0392960759339648e+11  4.5642108847155130e+15  -9.6739344192180795e+01  -1.7475140745406289e+07  7.0785954310366192e+19  8.8806874375205789e+03  -2.9256079877426619e+14  5.0213175699225610e+08  1.0486464150558952e+02  1.9425970394536236e+02  -7.9763110014995776e+16  -3.4910662903991539e+05  2.8112735761866286e+18  -2.0238267575806343e+10  2.2836521433592861e+17  -3.8680052027239000e+15  2.4431286905712746e+01  -1.1900408954569908e+05  -5.2393664987099841e+07  -3.7275262853768939e+05  -8.4085892209286522e+05  3.9547348354145924e+20  -1.8483533048253696e+22  3.7494423128203591e+25  -2.1697533392401599e+21  9.5393282946568698e+07  9.0163342388505540e+23  -1.4997061712631263e+19  -1.7145556124513014e+06  2.4150787056286819e+02  -1.0131303098615763e+04  9.9427785482057922e+13  9.7681408309158379e+12  -1.4481520982161775e+09  1.0259495295344242e+22  1.5846185588929010e+11  8.4151557298782848e+01  4.2109395544407533e+01  3.3308626470000395e+03  -9.5707137502550098e+12  -4.9775362341190614e+06  -2.4903475417182894e+09  -1.2623803252910510e+05  2.1809470222674940e+07  4.3438330186810661e+06  1.2500600935344948e+14  -1.9479345067646671e+07  4.6615073814422292e+18  4.5081416161723270e+15  -1.5718002203854988e+16  -2.2638299126841597e+14  -2.8611781681190262e+17  -1.2694424041251115e+21  1.2680189687279128e+06  2.9946102045037015e+19  -1.5134458221826191e+09  -7.8933451238782111e+25  -7.7231379604857578e+12  5.6356445061222584e+18  -2.2462850840770762e+17  -7.5051112039446249e+19  -1.8549423676181590e+05  -8.2989289332595817e+01  2.1618293655639968e+02  7.6940208379373659e+24  1.0726317749334165e+12  1.1921868051156350e+17  -3.2109874751668900e+18  1.3103306004752753e+05  -7.4384744603693250e+14  -1.2456616507802546e+02  -8.1251813143798732e+23  -1.0649200611210093e+24  1.7359386695261752e+18  -3.8671358447367334e+09  -3.7999904081928977e+06  1.1140267266447206e+06  -6.9156782927148457e+09  1.7508877382590808e+11  -2.7188090033586520e+15  1.7527279234040286e+03  1.7330990105983035e+19  4.9406296278215802e+17  -3.3707059821754020e+08  -1.6671138852730206e+25  -1.1292201823807759e+11  -7.0411969845552000e+17  -8.7462596586607568e+11  1.1193742200511331e+14  -3.9838590871411650e+12  -3.5923598415239072e+09  1.1323157020303398e+02  -2.5279859958836692e+06  -5.1007132603237430e+01  -1.0525324859076577e+05  3.0632653938559215e+03  6.1572686218348017e+22  -4.8173591980548173e+07  -8.3092654148598030e+15  -3.7095462822357783e+09  8.0858471712587809e+19  2.0184433726423036e+16  4.0371057268434179e+22  -6.6520010103768991e+03  1.1971272525933335e+19  -1.6954293677043077e+03  -3.5473082764338031e+00  -3.6061226299680658e+02  -3.0821878803151898e+17  -6.2821943598858023e+04  -7.9431571029393453e+01  6.5801077845182020e+15  2.6396725422247980e+16  -4.5508