<?xml version="1.0"?>
<VTKFile type="UnstructuredGrid"  version="0.1"  >
<UnstructuredGrid>
<Piece  NumberOfPoints="20054" NumberOfCells="39478">
<Points>
<DataArray  type="Float64"  NumberOfComponents="3"  format="ascii">1 0 0  0.9997998037428526 0.02000880895389431 0  0.9991992951284931 0.04000960653046352 0  0.9981987145960756 0.05999438456007805 0  0.9967984627705549 0.07995514128721501 0  0.9949991003022806 0.09988388457430118 0  0.9928013476425149 0.1197726351017051 0  0.9902060847549715 0.139613429562597 0  0.987214350763483 0.1593983238513969 0  0.9838273435359444 0.1791193962445356 0  0.9800464192046954 0.198768750572253 0  0.9758730916235354 0.2183385193801655 0  0.9713090317615876 0.237820867079336 0  0.9663560670342555 0.2572079930835849 0  0.9610161805715396 0.2764921349327862 0  0.9552915104240066 0.2956655714008991 0  0.9491843487067304 0.3147206255874884 0  0.9426971406815462 0.3336496679914983 0  0.9358324837779861 0.3524451195660473 0  0.9285931265532873 0.3710994547530225 0  0.9209819675918909 0.3896052044962556 0  0.9130020543448703 0.4079549592320781 0  0.9046565819097542 0.4261413718560547 0  0.8959488917512338 0.4441571606647087 0  0.8868824703632656 0.4619951122710622 0  0.8774609478731046 0.4796480844928215 0  0.8676880965878291 0.4971090092120542 0  0.8575678294839372 0.5143708952052096 0  0.8471041986406199 0.5314268309423539 0  0.8363013936173391 0.5482699873544935 0  0.8251637397763597 0.5648936205678837 0  0.8136956965509062 0.5812910746042258 0  0.8019018556596399 0.5974557840456699 0  0.7897869392681683 0.6133812766635599 0  0.777355798098326 0.6290611760098652 0  0.7646134094859813 0.6444892039702628 0  0.7515648753881492 0.6596591832778468 0  0.7382154203402046 0.6745650399864606 0  0.7245703893640189 0.6892008059026586 0  0.7106352458278521 0.7035606209753273 0  0.6964155692588616 0.7176387356420051 0  0.6819170531091018 0.7314295131309636 0  0.6671455024759069 0.7449274317181303 0  0.6521068317775753 0.7581270869379442 0  0.6368070623852795 0.7710231937472638 0  0.6212523202121545 0.7836105886414595 0  0.6054488332605282 0.795884231721841 0  0.5894029291282759 0.8078392087135958 0  0.5731210324752972 0.8194707329334278 0  0.5566096624511305 0.8307741472061095 0  0.5398754300847343 0.8417449257291802 0  0.5229250356374803 0.8523786758850435 0  0.5057652659204196 0.8626711399997378 0  0.4884029915768944 0.8726181970476778 0  0.4708451643315825 0.8822158643016828 0  0.45309881420708 0.8914602989276292 0  0.4351710467091336 0.9003477995230937 0  0.4170690399816468 0.9088748075993677 0  0.398800041932607 0.9170379090062476 0  0.3803713673320772 0.9248338352990368 0  0.3617903948834157 0.9322594650472057 0  0.3430645642688987 0.9393118250841893 0  0.3242013731709288 0.9459880916978206 0  0.3052083742700172 0.952285591760924 0  0.2860931722207478 0.9582018038016155 0  0.2668634206069304 0.963734359012881 0  0.2475268188771628 0.9688810422010291 0  0.2280911092620296 0.9736397926726377 0  0.2085640736741707 0.9780087050596407 0  0.1889535305924618 0.9819860300822225 0  0.1692673319315541 0.9855701752492174 0  0.1495133598980264 0.9887597054957302 0  0.1296995238344084 0.9915533437577263 0  0.1098337570523395 0.9939499714833577 0  0.08992401365612977 0.9959486290808237 0  0.06997826535799723 0.9975485163025836 0  0.05000449828625179 0.9987489925657699 0  0.03001070978771124 0.9995495772086734 0  0.01000490522562346 0.9999499496831961 0  -0.01000490522562333 0.9999499496831961 0  -0.03001070978771133 0.9995495772086734 0  -0.05000449828625144 0.9987489925657699 0  -0.06997826535799688 0.9975485163025836 0  -0.08992401365612987 0.9959486290808237 0  -0.1098337570523394 0.9939499714833577 0  -0.1296995238344082 0.9915533437577263 0  -0.1495133598980262 0.9887597054957303 0  -0.1692673319315537 0.9855701752492174 0  -0.1889535305924614 0.9819860300822226 0  -0.2085640736741705 0.9780087050596407 0  -0.2280911092620295 0.9736397926726377 0  -0.2475268188771627 0.9688810422010291 0  -0.2668634206069302 0.9637343590128811 0  -0.2860931722207475 0.9582018038016156 0  -0.3052083742700173 0.9522855917609239 0  -0.3242013731709289 0.9459880916978205 0  -0.3430645642688986 0.9393118250841894 0  -0.3617903948834154 0.9322594650472058 0  -0.380371367332077 0.924833835299037 0  -0.3988000419326071 0.9170379090062476 0  -0.4170690399816465 0.9088748075993678 0  -0.4351710467091335 0.9003477995230939 0  -0.4530988142070799 0.8914602989276292 0  -0.4708451643315824 0.8822158643016829 0  -0.4884029915768945 0.8726181970476778 0  -0.5057652659204197 0.8626711399997378 0  -0.5229250356374801 0.8523786758850437 0  -0.5398754300847342 0.8417449257291804 0  -0.5566096624511303 0.8307741472061098 0  -0.5731210324752971 0.8194707329334279 0  -0.589402929128276 0.8078392087135957 0  -0.6054488332605281 0.7958842317218411 0  -0.6212523202121542 0.7836105886414597 0  -0.6368070623852793 0.7710231937472639 0  -0.652106831777575 0.7581270869379444 0  -0.6671455024759069 0.7449274317181304 0  -0.6819170531091018 0.7314295131309636 0  -0.6964155692588616 0.7176387356420052 0  -0.7106352458278521 0.7035606209753273 0  -0.7245703893640187 0.6892008059026588 0  -0.7382154203402043 0.6745650399864608 0  -0.751564875388149 0.6596591832778469 0  -0.7646134094859813 0.6444892039702628 0  -0.7773557980983258 0.6290611760098654 0  -0.7897869392681683 0.6133812766635599 0  -0.8019018556596398 0.59745578404567 0  -0.8136956965509062 0.5812910746042258 0  -0.8251637397763595 0.5648936205678839 0  -0.836301393617339 0.5482699873544935 0  -0.8471041986406197 0.5314268309423542 0  -0.8575678294839372 0.5143708952052097 0  -0.8676880965878292 0.497109009212054 0  -0.8774609478731045 0.4796480844928216 0  -0.8868824703632656 0.4619951122710621 0  -0.8959488917512338 0.4441571606647088 0  -0.904656581909754 0.426141371856055 0  -0.9130020543448703 0.4079549592320783 0  -0.920981967591891 0.3896052044962555 0  -0.9285931265532872 0.3710994547530226 0  -0.9358324837779861 0.3524451195660473 0  -0.9426971406815462 0.3336496679914984 0  -0.9491843487067303 0.3147206255874888 0  -0.9552915104240065 0.2956655714008993 0  -0.9610161805715396 0.2764921349327862 0  -0.9663560670342555 0.2572079930835851 0  -0.9713090317615876 0.2378208670793361 0  -0.9758730916235353 0.2183385193801658 0  -0.9800464192046954 0.198768750572253 0  -0.9838273435359444 0.1791193962445354 0  -0.987214350763483 0.159398323851397 0  -0.9902060847549714 0.1396134295625972 0  -0.9928013476425149 0.1197726351017052 0  -0.9949991003022804 0.09988388457430147 0  -0.9967984627705549 0.07995514128721509 0  -0.9981987145960756 0.05999438456007793 0  -0.9991992951284931 0.04000960653046362 0  -0.9997998037428526 0.02000880895389464 0  -1 1.224646799147353e-16 0  -0.9997998037428526 -0.0200088089538944 0  -0.9991992951284931 -0.04000960653046338 0  -0.9981987145960756 -0.05999438456007812 0  -0.9967984627705549 -0.07995514128721484 0  -0.9949991003022806 -0.09988388457430078 0  -0.9928013476425149 -0.1197726351017049 0  -0.9902060847549715 -0.1396134295625965 0  -0.9872143507634831 -0.1593983238513963 0  -0.9838273435359444 -0.1791193962445356 0  -0.9800464192046953 -0.1987687505722532 0  -0.9758730916235354 -0.2183385193801655 0  -0.9713090317615876 -0.2378208670793363 0  -0.9663560670342556 -0.2572079930835848 0  -0.9610161805715396 -0.276492134932786 0  -0.9552915104240066 -0.2956655714008991 0  -0.9491843487067305 -0.3147206255874881 0  -0.9426971406815464 -0.3336496679914978 0  -0.9358324837779862 -0.3524451195660471 0  -0.9285931265532875 -0.371099454753022 0  -0.9209819675918909 -0.3896052044962557 0  -0.9130020543448704 -0.407954959232078 0  -0.9046565819097541 -0.4261413718560548 0  -0.8959488917512338 -0.4441571606647086 0  -0.8868824703632655 -0.4619951122710623 0  -0.8774609478731046 -0.4796480844928214 0  -0.8676880965878293 -0.4971090092120538 0  -0.8575678294839373 -0.5143708952052095 0  -0.84710419864062 -0.5314268309423537 0  -0.8363013936173395 -0.5482699873544929 0  -0.8251637397763596 -0.5648936205678838 0  -0.8136956965509061 -0.5812910746042259 0  -0.8019018556596399 -0.5974557840456699 0  -0.7897869392681682 -0.61338127666356 0  -0.777355798098326 -0.6290611760098652 0  -0.7646134094859816 -0.6444892039702625 0  -0.7515648753881492 -0.6596591832778468 0  -0.7382154203402048 -0.6745650399864603 0  -0.7245703893640192 -0.6892008059026583 0  -0.7106352458278522 -0.7035606209753272 0  -0.6964155692588621 -0.7176387356420046 0  -0.6819170531091017 -0.7314295131309637 0  -0.667145502475907 -0.7449274317181303 0  -0.6521068317775756 -0.758127086937944 0  -0.6368070623852792 -0.7710231937472641 0  -0.6212523202121544 -0.7836105886414596 0  -0.6054488332605283 -0.795884231721841 0  -0.5894029291282762 -0.8078392087135956 0  -0.5731210324752977 -0.8194707329334274 0  -0.5566096624511304 -0.8307741472061095 0  -0.5398754300847344 -0.8417449257291802 0  -0.5229250356374798 -0.8523786758850437 0  -0.5057652659204195 -0.8626711399997379 0  -0.4884029915768943 -0.872618197047678 0  -0.4708451643315825 -0.8822158643016828 0  -0.4530988142070805 -0.8914602989276289 0  -0.4351710467091333 -0.900347799523094 0  -0.4170690399816467 -0.9088748075993677 0  -0.3988000419326073 -0.9170379090062475 0  -0.3803713673320777 -0.9248338352990366 0  -0.3617903948834162 -0.9322594650472055 0  -0.3430645642688988 -0.9393118250841893 0  -0.3242013731709283 -0.9459880916978207 0  -0.3052083742700169 -0.9522855917609241 0  -0.2860931722207477 -0.9582018038016155 0  -0.2668634206069305 -0.963734359012881 0  -0.2475268188771631 -0.968881042201029 0  -0.2280911092620301 -0.9736397926726376 0  -0.2085640736741706 -0.9780087050596407 0  -0.1889535305924619 -0.9819860300822225 0  -0.1692673319315544 -0.9855701752492173 0  -0.1495133598980269 -0.9887597054957302 0  -0.1296995238344092 -0.9915533437577262 0  -0.1098337570523396 -0.9939499714833577 0  -0.08992401365612945 -0.9959486290808237 0  -0.06997826535799691 -0.9975485163025836 0  -0.05000449828625168 -0.9987489925657699 0  -0.030010709787
[...]
<PointData  Scalars="Displacement"> 
<DataArray  type="Float64"  Name="Displacement"  format="ascii">0.0000000000000000e+00  0.0000000000000000e+00  0.0000000000000000e+00  0.0000000000000000e+00  0.0000000000000000e+00  0.0000000000000000e+00  0.0000000000000000e+00  0.0000000000000000e+00  0.0000000000000000e+00  0.0000000000000000e+00  0.0000000000000000e+00  0.0000000000000000e+00  0.0000000000000000e+00  0.0000000000000000e+00  0.0000000000000000e+00  0.0000000000000000e+00  0.0000000000000000e+00  0.0000000000000000e+00  0.0000000000000000e+00  0.0000000000000000e+00  0.0000000000000000e+00  0.0000000000000000e+00  0.0000000000000000e+00  0.0000000000000000e+00  0.0000000000000000e+00  0.0000000000000000e+00  0.0000000000000000e+00  0.0000000000000000e+00  0.0000000000000000e+00  0.0000000000000000e+00  0.0000000000000000e+00  0.0000000000000000e+00  0.0000000000000000e+00  0.0000000000000000e+00  0.0000000000000000e+00  0.0000000000000000e+00  0.0000000000000000e+00  0.0000000000000000e+00  0.0000000000000000e+00  0.0000000000000000e+00  0.0000000000000000e+00  0.0000000000000000e+00  0.0000000000000000e+00  0.0000000000000000e+00  0.0000000000000000e+00  0.0000000000000000e+00  0.0000000000000000e+00  0.0000000000000000e+00  0.0000000000000000e+00  0.0000000000000000e+00  0.0000000000000000e+00  0.0000000000000000e+00  0.0000000000000000e+00  0.0000000000000000e+00  0.0000000000000000e+00  0.0000000000000000e+00  0.0000000000000000e+00  0.0000000000000000e+00  0.0000000000000000e+00  0.0000000000000000e+00  0.0000000000000000e+00  0.0000000000000000e+00  0.0000000000000000e+00  0.0000000000000000e+00  0.0000000000000000e+00  0.0000000000000000e+00  0.0000000000000000e+00  0.0000000000000000e+00  0.0000000000000000e+00  0.0000000000000000e+00  0.0000000000000000e+00  0.0000000000000000e+00  0.0000000000000000e+00  0.0000000000000000e+00  0.0000000000000000e+00  0.0000000000000000e+00  0.0000000000000000e+00  0.0000000000000000e+00  0.0000000000000000e+00  0.0000000000000000e+00  0.0000000000000000e+00  0.0000000000000000e+00  0.0000000000000000e+00  0.0000000000000000e+00  0.0000000000000000e+00  0.0000000000000000e+00  0.0000000000000000e+00  0.0000000000000000e+00  0.0000000000000000e+00  0.0000000000000000e+00  0.0000000000000000e+00  0.0000000000000000e+00  0.0000000000000000e+00  0.0000000000000000e+00  0.0000000000000000e+00  0.0000000000000000e+00  0.0000000000000000e+00  0.0000000000000000e+00  0.0000000000000000e+00  0.0000000000000000e+00  0.0000000000000000e+00  0.0000000000000000e+00  0.0000000000000000e+00  0.0000000000000000e+00  0.0000000000000000e+00  0.0000000000000000e+00  0.0000000000000000e+00  0.0000000000000000e+00  0.0000000000000000e+00  0.0000000000000000e+00  0.0000000000000000e+00  0.0000000000000000e+00  0.0000000000000000e+00  0.0000000000000000e+00  0.0000000000000000e+00  0.0000000000000000e+00  0.0000000000000000e+00  0.0000000000000000e+00  0.0000000000000000e+00  0.0000000000000000e+00  0.0000000000000000e+00  0.0000000000000000e+00  0.0000000000000000e+00  0.0000000000000000e+00  0.0000000000000000e+00  0.0000000000000000e+00  0.0000000000000000e+00  0.0000000000000000e+00  0.0000000000000000e+00  0.0000000000000000e+00  0.0000000000000000e+00  0.0000000000000000e+00  0.0000000000000000e+00  0.0000000000000000e+00  0.0000000000000000e+00  0.0000000000000000e+00  0.0000000000000000e+00  0.0000000000000000e+00  0.0000000000000000e+00  0.0000000000000000e+00  0.0000000000000000e+00  0.0000000000000000e+00  0.0000000000000000e+00  0.0000000000000000e+00  0.0000000000000000e+00  0.0000000000000000e+00  0.0000000000000000e+00  0.0000000000000000e+00  0.0000000000000000e+00  0.0000000000000000e+00  0.0000000000000000e+00  0.0000000000000000e+00  0.0000000000000000e+00  0.0000000000000000e+00  0.0000000000000000e+00  0.0000000000000000e+00  0.0000000000000000e+00  0.0000000000000000e+00  0.0000000000000000e+00  0.0000000000000000e+00  0.0000000000000000e+00  0.0000000000000000e+00  0.0000000000000000e+00  0.0000000000000000e+00  0.0000000000000000e+00  0.0000000000000000e+00  0.0000000000000000e+00  0.0000000000000000e+00  0.0000000000000000e+00  0.0000000000000000e+00  0.0000000000000000e+00  0.0000000000000000e+00  0.0000000000000000e+00  0.0000000000000000e+00  0.0000000000000000e+00  0.0000000000000000e+00  0.0000000000000000e+00  0.0000000000000000e+00  0.0000000000000000e+00  0.0000000000000000e+00  0.0000000000000000e+00  0.0000000000000000e+00  0.0000000000000000e+00  0.0000000000000000e+00  0.0000000000000000e+00  0.0000000000000000e+00  0.0000000000000000e+00  0.0000000000000000e+00  0.0000000000000000e+00  0.0000000000000000e+00  0.0000000000000000e+00  0.0000000000000000e+00  0.0000000000000000e+00  0.0000000000000000e+00  0.0000000000000000e+00  0.0000000000000000e+00  0.0000000000000000e+00  0.0000000000000000e+00  0.0000000000000000e+00  0.0000000000000000e+00  0.0000000000000000e+00  0.0000000000000000e+00  0.0000000000000000e+00  0.0000000000000000e+00  0.0000000000000000e+00  0.0000000000000000e+00  0.0000000000000000e+00  0.0000000000000000e+00  0.0000000000000000e+00  0.0000000000000000e+00  0.0000000000000000e+00  0.0000000000000000e+00  0.0000000000000000e+00  0.0000000000000000e+00  0.0000000000000000e+00  0.0000000000000000e+00  0.0000000000000000e+00  0.0000000000000000e+00  0.0000000000000000e+00  0.0000000000000000e+00  0.0000000000000000e+00  0.0000000000000000e+00  0.0000000000000000e+00  0.0000000000000000e+00  0.0000000000000000e+00  0.0000000000000000e+00  0.0000000000000000e+00  0.0000000000000000e+00  0.0000000000000000e+00  0.0000000000000000e+00  0.0000000000000000e+00  0.0000000000000000e+00  0.0000000000000000e+00  0.0000000000000000e+00  0.0000000000000000e+00  0.0000000000000000e+00  0.0000000000000000e+00  0.0000000000000000e+00  0.0000000000000000e+00  0.0000000000000000e+00  0.0000000000000000e+00  0.0000000000000000e+00  0.0000000000000000e+00  0.0000000000000000e+00  0.0000000000000000e+00  0.0000000000000000e+00  0.0000000000000000e+00  0.0000000000000000e+00  0.0000000000000000e+00  0.0000000000000000e+00  0.0000000000000000e+00  0.0000000000000000e+00  0.0000000000000000e+00  0.0000000000000000e+00  0.0000000000000000e+00  0.0000000000000000e+00  0.0000000000000000e+00  0.0000000000000000e+00  0.0000000000000000e+00  0.0000000000000000e+00  0.0000000000000000e+00  0.0000000000000000e+00  0.0000000000000000e+00  0.0000000000000000e+00  0.0000000000000000e+00  0.0000000000000000e+00  0.0000000000000000e+00  0.0000000000000000e+00  0.0000000000000000e+00  0.0000000000000000e+00  0.0000000000000000e+00  0.0000000000000000e+00  0.0000000000000000e+00  0.0000000000000000e+00  0.0000000000000000e+00  0.0000000000000000e+00  0.0000000000000000e+00  0.0000000000000000e+00  0.0000000000000000e+00  0.0000000000000000e+00  0.0000000000000000e+00  0.0000000000000000e+00  0.0000000000000000e+00  0.0000000000000000e+00  0.0000000000000000e+00  0.0000000000000000e+00  0.0000000000000000e+00  0.0000000000000000e+00  0.0000000000000000e+00  0.0000000000000000e+00  0.0000000000000000e+00  0.0000000000000000e+00  0.0000000000000000e+00  0.0000000000000000e+00  0.0000000000000000e+00  0.0000000000000000e+00  0.0000000000000000e+00  0.0000000000000000e+00  0.0000000000000000e+00  0.0000000000000000e+00  0.0000000000000000e+00  0.0000000000000000e+00  0.0000000000000000e+00  0.0000000000000000e+00  0.0000000000000000e+00  0.0000000000000000e+00  0.0000000000000000e+00  0.0000000000000000e+00  0.0000000000000000e+00  0.0000000000000000e+00  0.0000000000000000e+00  0.0000000000000000e+00  0.0000000000000000e+00  0.0000000000000000e+00  7.2309762205109984e-01  -1.7805577103101815e-02  -1.7460611334027848e-02  -1.7852764776725514e-02  -1.7548617159505363e-02  -1.7840100486516807e-02  -1.0337146523950179e-02  -6.3919819756940183e-03  -5.6700744096611546e-03  -4.8560965524416990e-03  -4.9452611258153740e-03  -7.2573275105906720e-02  -4.0470451396524372e-03  -3.9319288526163398e-03  -5.6923139055617258e-02  -4.2499380200378870e-02  -3.1018052960150666e-03  -3.1200376388284779e-03  -3.2210690534390410e-03  -2.9729918608034172e-03  -2.9557488503913704e-03  -3.1703738522864612e-03  -2.8152545970877916e-03  -5.5793215427556067e-02  -5.5827763158167031e-02  4.5577391014349072e-02  -2.9563723715110087e-03  -2.2409606234632040e-03  -2.1788237490184869e-03  -2.1980796525428919e-02  -2.3479038562109209e-03  -1.9263735944224352e-02  1.5547485334793074e-01  -1.9440359248902028e-02  -2.0294301488793312e-03  -2.1696927599259650e-03  -1.8068277096034084e-03  -1.6039498962269934e-03  -1.8136212045081117e-03  -1.1490621833572497e-02  -1.1127949648144071e-02  -1.0497156149392273e-02  -1.0193917971305845e-02  2.3445512025027740e-01  -1.8133657900025084e-03  -1.7335876794612084e-03  -1.6134410427914821e-03  -1.7004662862165629e-03  -8.4017536310200501e-03  -9.0647214981951964e-03  -4.5145650721327259e-03  -1.1765590012305968e-02  -1.0001515910530771e-02  -2.3791875838414713e-02  -1.5075368201210944e-03  2.7298019475560437e-01  -1.4467779222826656e-03  -1.4199892659175701e-03  -9.2399912580932914e-02  -1.5787231975791965e-03  -1.2663596072627714e-03  -5.2657358598536524e-03  -1.3289367310646864e-03  -1.4101020425032285e-03  -9.2487206925905174e-02  5.3046428091719840e-02  -6.2723364646641924e-02  -2.3924889080631194e-02  -6.6968215381556145e-02  3.4883634912299277e-01  -9.2193881348174453e-02  -8.6759120696255684e-03  -6.4008515333909399e-03  -7.1789387716251294e-03  -7.2105034286820014e-03  -9.2150171490597996e-02  -1.3783360950319345e-03  -4.2121324134837497e-02  -9.3026203374810407e-02  -5.2526327918574469e-03  -1.3849272060676790e-03  -5.2007278336890596e-02  -1.3188993358804694e-03  -1.3316241368291153e-03  -1.2370000208449456e-03  3.8251422347824016e-01  -1.3629273941806366e-03  -1.1524073113935069e-03  -1.1006516466110965e-03  -6.9728690945038502e-02  -4.7542916484415538e-03  -1.0376280896449738e-03  -6.8292597906695991e-03  -1.0128971238969895e-03  -4.5279052135930743e-03  2.5447480333446204e-01  -1.4513035114858486e-03  -1.1399228953559945e-03  -4.3156297393350260e-03  -3.9917237972689782e-03  -5.6393595352742243e-03  -4.2710786109477778e-03  -1.2267181692270158e-03  -2.7609387045022478e-02  -1.2665760834548824e-02  -1.2816403702578080e-02  -3.3210292243354998e-02  -3.8547677726764903e-03  -4.1992652192004813e-03  -1.0997097397767493e-03  -3.6072627620575573e-02  -1.0147040689584867e-03  -9.9360571721245051e-04  -8.4763052817100840e-03  -7.8638259096335730e-03  -3.6685096980061142e-03  -9.8702033247436913e-04  -1.0983108714078742e-03  -1.0473532936750962e-03  3.5152942319061903e-01  -2.9191238410012744e-02  -2.6518646891079485e-03  -4.8163321010114869e-02  -1.3553673576741519e-03  -3.2692106950161517e-03  -4.5537811866820438e-03  -1.0184741976841079e-03  -1.1371356949593855e-03  -2.9171273320785672e-03  -3.2631534465641667e-03  -4.9876665135163440e-03  -3.4294952125409370e-03  -6.6563359965410122e-03  -2.3323824840384106e-02  -8.4941170523637841e-03  -3.6768335032111260e-03  -1.2062871169557128e-03  -3.0232869269342308e-02  -7.2696276271835142e-02  -8.5655777820390896e-02  4.6586618243573541e-01  -2.9039978921532403e-02  -2.4156921210055425e-03  -3.6627526866712778e-02  -8.3955023748423386e-03  -2.4071399738824733e-03  -2.4425369357757979e-03  -6.5916505824066052e-02  2.2743913206643426e-01  -6.1182892703344396e-03  -8.1268679019375078e-04  -8.2132602550017975e-03  -6.9663164905585842e-02  -2.6679215098195192e-03  -2.7645487661297381e-03  -1.7492374687622515e-03  -6.9450001343946939e-04  -2.3520822965078466e-03  -9.9211676938203456e-04  -9.6991420097607205e-04  -9.5582851976417748e-04  -2.4594571721750142e-03  -5.1739356692287880e-03  -8.6712048455868732e-04  -1.8912319224381085e-03  -1.5932003689445143e-02  -2.7206391581014065e-03  -1.2393813329321726e-03  -6.1294520698687712e-04  -2.3245372963118420e-03  -9.2111106370373862e-03  4.8999936858936077e-01  -2.3248175245024700e-03  -6.1273690255190666e-02  -7.8924301842057032e-04  -2.4955590516320351e-02  -8.5118903445197125e-04  -2.9910126125285538e-03  -6.9504375785455006e-04  -2.0605149359189730e-02  -2.3483061793403426e-03  -1.3928019833605197e-02  -8.3839699284930045e-03  7.4264040476975629e-02  -8.4650177934971914e-04  -1.1868737374852270e-02  -5.7602584350776526e-03  -1.9407377715962987e-02  -8.0275808241983971e-04  -1.5935642724202929e-03  -7.9485614350608238e-04  2.3120595399167249e-01  -7.0026841061903182e-04  -8.6614438221328284e-04  -1.3709596419413991e-02  -9.6968396011882702e-02  -2.8264711220108243e-03  -2.1063535126413669e-03  -1.5965985251218919e-02  -5.1207688856596675e-03  -8.0331556095818105e-03  -9.3484984523896815e-03  -1.8345340767206425e-02  -5.5845450594823667e-03  -7.8567459901052045e-03  -2.1652004359880928e-03  -2.3040663251580164e-03  1.7352523274448875e-02  -1.4332963800981263e-03  -2.1641040462839598e-03  -3.1924508125758823e-03  1.9595135558360607e-01  5.0630445606329610e-01  -8.2031855816745876e-04  -5.3280280221746365e-04  -2.3470559012443337e-03  -2.1027708306387824e-02  -6.7633973197655931e-04  -5.9191161369652519e-03  -4.8427198502353835e-03  -1.5322500344876920e-03  -4.4095042645863735e-03  -4.1975451869982812e-02  -6.5624626160437488e-03  -5.1556216031771662e-03  -8.2344743135517851e-04  -3.8215156432946490e-03  -7.6538394103117823e-04  -4.9214510298889996e-03  -7.4965764831429183e-04  -9.1344499102941393e-04  -8.2903608339546220e-04  -7.0916363277296658e-04  -1.6627089860730738e-03  -7.2835261742415871e-04  -2.5225523320332694e-02  -7.7404278080758331e-03  -1.8523172934236181e-03  -1.9894936522452961e-03  -1.0453039004439148e-02  -8.3295129609481128e-02  -5.8403443377539610e-03  -6.8705416380053794e-03  -9.7122920824769350e-04  -1.6958198962689547e-02  -4.5615206380730545e-04  -6.2041146272399830e-04  -5.8601595516634983e-04  -7.5650379420645411e-02  -2.0293615613371185e-02  -1.0926885211039808e-02  -1.1283357024747075e-02  -4.8463707991916294e-02  5.0438262260075362e-01  -1.9103187819238220e-03  -5.3660801275838804e-02  -2.2801351537683049e-03  -1.2349355341107746e-02  -8.0867040742997154e-04  -6.8438889110554110e-04  -8.3014377594992615e-04  -3.7134681426065192e-03  -2.0998844037371351e-03  -8.7140703674626896e-03  -2.1741085419545145e-02  -4.7967012481113104e-02  -1.7535850774316256e-03  -9.8382627843215812e-04  -8.6723553007897057e-04  -8.9137848591256535e-03  -4.5403385078567673e-04  -7.1509391203455480e-02  -2.3146042959355045e-02  -2.7999248548804937e-03  -2.1938054570481143e-03  -3.9078604686097473e-03  -9.5751732160080053e-02  -9.3794039845025781e-02  -6.6218746990722749e-02  -8.8479886598914231e-02  -8.6399869860407263e-02  5.5380231983073333e-02  1.0385486512021853e-01  -5.1573357510653018e-03  -3.9647357972069225e-03  -2.9173140656969343e-03  -8.5238606832289329e-02  -7.9663233987526836e-04  -1.9607130347723896e-03  -4.2243164428851787e-02  8.9688434202863862e-02  -2.4031554686410488e-02  -5.6877543403206603e-03  -1.0454321116973258e-02  1.5923789982432085e-01  -6.5044589687481317e-04  -1.1497311226813424e-02  -7.3275217843654823e-04  -6.0121473033575713e-04  -6.0636210040892970e-04  2.6031379786915249e-01  5.3348685527541917e-01  -9.5234356678349022e-02  1.4846087017094748e-02  -4.4318654082589970e-03  -6.5170422174033816e-03  -3.3153256914487230e-03  -8.1666809435466305e-03  -5.2227013062631439e-03  -5.8327522794511637e-03  -1.2111676662093458e-02  -5.3923051205255054e-03  -8.6423441342119198e-02  -2.6880392421285183e-03  1.0462829748352487e-01  4.3645713330445729e-02  -9.2589109361678919e-03  -3.4824043288279485e-03  -4.1357398050725375e-03  -4.5203590979816041e-04  -2.2088393741980876e-03  -2.3395350535698935e-03  -3.6055633860631854e-04  -8.8969300330708129e-02  -5.5666019637439792e-04  -5.0114635253908218e-04  -1.7378985719765482e-03  -4.0998308030280387e-02  -7.2384409530463711e-02  -5.7547339803507867e-02  -6.1083878125986100e-04  -3.4089140924851982e-03  -5.4436495551437756e-03  -1.5141964756579881e-02  -9.4745534987140972e-02  -3.1133955755976873e-03  -1.6822885943678707e-02  -8.9347055324839386e-02  4.7771618613444165e-02  -4.5321899600700823e-03  -2.0583348924788705e-03  -1.7547028240401712e-02  -1.6279827272995422e-03  -1.4727458594431734e-03  -4.2443106095547559e-03  -4.7107197088993175e-04  -2.1082243097894074e-03  -2.6316263766474560e-03  -4.7285345851918239e-04  -4.4318817144061422e-03  -4.3652724204568741e-03  -4.8022591021859595e-04  -1.4014097322689778e-03  -3.8014920089944132e-04  -1.8086775832692689e-03  -1.5473749710457826e-03  -1.0701303168002831e-02  5.6904042410962918e-01  -1.7510800010889381e-03  2.6657048902410108e-01  1.7063039261634902e-01  -2.8277270106055893e-03  -5.1205128312995581e-04  -7.8461065339232878e-03  -1.5744244005244121e-03  -9.5491654291178812e-02  -1.6255166815315704e-03  -3.9274474122049131e-03  4.3406469803526387e-01  -2.0203559427894881e-03  -6.8460765991595071e-04  -7.5862542374685322e-04  -1.9217519004760748e-03  -7.2985196256900267e-02  -2.8247054508534899e-02  -3.9044277459348428e-03  -7.9693559717293190e-04  3.2213489123831374e-01  -7.6814661065608180e-03  -5.4260437266092558e-04  -1.3563450083062430e-02  -5.9251765667363222e-04  -1.8899805481556828e-03  -1.6664173099099181e-02  -6.2624981235513786e-04  5.8624468527143918e-02  -5.6317699457734049e-04  -1.8845719093763134e-03  -3.2698811066879748e-04  -3.9113961656126420e-02  -8.7487579465241432e-03  -4.6276180078052521e-03  -9.2769089004791968e-03  -5.8381708198738502e-04  -1.5115612256093158e-03  -4.0022576850879323e-02  -6.0502546687573417e-04  -7.0430634937504281e-03  -2.9069976494615264e-03  -6.3075429245410680e-04  -4.8710607322710315e-04  -1.1657111456943089e-02  -1.1795909190304432e-03  -2.3864279312231205e-02  -3.2679110039738196e-03  -1.1865110316476132e-02  -8.4909242598946565e-03  -5.3063170945651745e-04  -1.6918994632958975e-03  -2.0051623557943801e-03  -1.3599233181084893e-03  -1.2684818784557642e-03  -2.8084734331304099e-02  -6.9203076601710975e-02  1.0816201221496359e-01  -6.4302372129717511e-02  -1.8249035684232188e-03  -5.4963689444831335e-02  -1.8695668586230774e-02  -1.7825957950182818e-03  -6.4604861501558217e-04  -6.9281776381908185e-04  -6.7988160028292846e-03  -4.9979235306164271e-03  -3.2862487281651175e-03  -5.9613917320216633e-02  -3.4795115592706452e-03  -4.7821576228823377e-04  -6.6696719260973250e-04  -7.5040656271498107e-04  -5.1503784100058458e-03  -1.5367368486658038e-03  -2.9215951355372710e-03  -1.3308668761357694e-03  -1.8141057668201311e-03  -1.6423753573867768e-03  -6.5492215414531514e-03  -1.9883750096913598e-03  -1.7330444306414238e-02  -7.5970309936696330e-03  -1.0633493793190544e-02  -7.6848093184870804e-03  -1.4295046903250536e-02  -3.6682546646847676e-02  -1.2021461035289565e-03  -3.2280799464710970e-02  -2.4397850481366087e-03  4.0819386886582554e-01  -5.8734777583785364e-03  -1.7050099384233748e-02  -1.2779425914911465e-02  -4.6544101195345522e-02  -1.3665870747460369e-03  -6.3623121624889999e-04  -4.2862688535094852e-04  -3.7764442996508822e-02  -4.4570866769911869e-03  -1.4821574794720314e-02  -1.7817252730535402e-02  -1.1338429384067257e-03  -7.9021119675797367e-03  -4.7642803663425866e-04  7.0765304010189753e-02  -9.5001322366096583e-02  -1.9587411424075486e-02  -2.9346833228001473e-03  -1.6988871629608111e-03  -1.2986820307068160e-03  -3.2735917002787579e-03  -3.4406202022205013e-03  -9.2463553332012196e-03  -1.2539634805653621e-03  -2.0155417690189213e-02  -1.4577304572511784e-02  -1.7996742786391363e-03  7.8558998029212970e-02  -3.6252196437223912e-03  -1.5195774573638243e-02  -4.1691937580042044e-03  -6.0861716092898525e-03  -5.1538108389390918e-03  -2.7315437349961329e-03  -5.1520533777886643e-04  -1.5802951079070756e-03  -4.2442763074796152e-04  -1.2771316345556068e-03  -9.1558333297983303e-04  -8.7068003548657763e-02  -2.2202435166992921e-03  -8.2461299686460987e-03  -2.5821524919907618e-03  -3.3055715514207148e-02  -9.4889973024418223e-03  -9.6757798149608595e-02  -7.4985144471398986e-04  -3.1885196266040028e-02  -6