<?xml version="1.0"?>
<VTKFile type="UnstructuredGrid"  version="0.1"  >
<UnstructuredGrid>
<Piece  NumberOfPoints="20054" NumberOfCells="39478">
<Points>
<DataArray  type="Float64"  NumberOfComponents="3"  format="ascii">1 0 0  0.9997998037428526 0.02000880895389431 0  0.9991992951284931 0.04000960653046352 0  0.9981987145960756 0.05999438456007805 0  0.9967984627705549 0.07995514128721501 0  0.9949991003022806 0.09988388457430118 0  0.9928013476425149 0.1197726351017051 0  0.9902060847549715 0.139613429562597 0  0.987214350763483 0.1593983238513969 0  0.9838273435359444 0.1791193962445356 0  0.9800464192046954 0.198768750572253 0  0.9758730916235354 0.2183385193801655 0  0.9713090317615876 0.237820867079336 0  0.9663560670342555 0.2572079930835849 0  0.9610161805715396 0.2764921349327862 0  0.9552915104240066 0.2956655714008991 0  0.9491843487067304 0.3147206255874884 0  0.9426971406815462 0.3336496679914983 0  0.9358324837779861 0.3524451195660473 0  0.9285931265532873 0.3710994547530225 0  0.9209819675918909 0.3896052044962556 0  0.9130020543448703 0.4079549592320781 0  0.9046565819097542 0.4261413718560547 0  0.8959488917512338 0.4441571606647087 0  0.8868824703632656 0.4619951122710622 0  0.8774609478731046 0.4796480844928215 0  0.8676880965878291 0.4971090092120542 0  0.8575678294839372 0.5143708952052096 0  0.8471041986406199 0.5314268309423539 0  0.8363013936173391 0.5482699873544935 0  0.8251637397763597 0.5648936205678837 0  0.8136956965509062 0.5812910746042258 0  0.8019018556596399 0.5974557840456699 0  0.7897869392681683 0.6133812766635599 0  0.777355798098326 0.6290611760098652 0  0.7646134094859813 0.6444892039702628 0  0.7515648753881492 0.6596591832778468 0  0.7382154203402046 0.6745650399864606 0  0.7245703893640189 0.6892008059026586 0  0.7106352458278521 0.7035606209753273 0  0.6964155692588616 0.7176387356420051 0  0.6819170531091018 0.7314295131309636 0  0.6671455024759069 0.7449274317181303 0  0.6521068317775753 0.7581270869379442 0  0.6368070623852795 0.7710231937472638 0  0.6212523202121545 0.7836105886414595 0  0.6054488332605282 0.795884231721841 0  0.5894029291282759 0.8078392087135958 0  0.5731210324752972 0.8194707329334278 0  0.5566096624511305 0.8307741472061095 0  0.5398754300847343 0.8417449257291802 0  0.5229250356374803 0.8523786758850435 0  0.5057652659204196 0.8626711399997378 0  0.4884029915768944 0.8726181970476778 0  0.4708451643315825 0.8822158643016828 0  0.45309881420708 0.8914602989276292 0  0.4351710467091336 0.9003477995230937 0  0.4170690399816468 0.9088748075993677 0  0.398800041932607 0.9170379090062476 0  0.3803713673320772 0.9248338352990368 0  0.3617903948834157 0.9322594650472057 0  0.3430645642688987 0.9393118250841893 0  0.3242013731709288 0.9459880916978206 0  0.3052083742700172 0.952285591760924 0  0.2860931722207478 0.9582018038016155 0  0.2668634206069304 0.963734359012881 0  0.2475268188771628 0.9688810422010291 0  0.2280911092620296 0.9736397926726377 0  0.2085640736741707 0.9780087050596407 0  0.1889535305924618 0.9819860300822225 0  0.1692673319315541 0.9855701752492174 0  0.1495133598980264 0.9887597054957302 0  0.1296995238344084 0.9915533437577263 0  0.1098337570523395 0.9939499714833577 0  0.08992401365612977 0.9959486290808237 0  0.06997826535799723 0.9975485163025836 0  0.05000449828625179 0.9987489925657699 0  0.03001070978771124 0.9995495772086734 0  0.01000490522562346 0.9999499496831961 0  -0.01000490522562333 0.9999499496831961 0  -0.03001070978771133 0.9995495772086734 0  -0.05000449828625144 0.9987489925657699 0  -0.06997826535799688 0.9975485163025836 0  -0.08992401365612987 0.9959486290808237 0  -0.1098337570523394 0.9939499714833577 0  -0.1296995238344082 0.9915533437577263 0  -0.1495133598980262 0.9887597054957303 0  -0.1692673319315537 0.9855701752492174 0  -0.1889535305924614 0.9819860300822226 0  -0.2085640736741705 0.9780087050596407 0  -0.2280911092620295 0.9736397926726377 0  -0.2475268188771627 0.9688810422010291 0  -0.2668634206069302 0.9637343590128811 0  -0.2860931722207475 0.9582018038016156 0  -0.3052083742700173 0.9522855917609239 0  -0.3242013731709289 0.9459880916978205 0  -0.3430645642688986 0.9393118250841894 0  -0.3617903948834154 0.9322594650472058 0  -0.380371367332077 0.924833835299037 0  -0.3988000419326071 0.9170379090062476 0  -0.4170690399816465 0.9088748075993678 0  -0.4351710467091335 0.9003477995230939 0  -0.4530988142070799 0.8914602989276292 0  -0.4708451643315824 0.8822158643016829 0  -0.4884029915768945 0.8726181970476778 0  -0.5057652659204197 0.8626711399997378 0  -0.5229250356374801 0.8523786758850437 0  -0.5398754300847342 0.8417449257291804 0  -0.5566096624511303 0.8307741472061098 0  -0.5731210324752971 0.8194707329334279 0  -0.589402929128276 0.8078392087135957 0  -0.6054488332605281 0.7958842317218411 0  -0.6212523202121542 0.7836105886414597 0  -0.6368070623852793 0.7710231937472639 0  -0.652106831777575 0.7581270869379444 0  -0.6671455024759069 0.7449274317181304 0  -0.6819170531091018 0.7314295131309636 0  -0.6964155692588616 0.7176387356420052 0  -0.7106352458278521 0.7035606209753273 0  -0.7245703893640187 0.6892008059026588 0  -0.7382154203402043 0.6745650399864608 0  -0.751564875388149 0.6596591832778469 0  -0.7646134094859813 0.6444892039702628 0  -0.7773557980983258 0.6290611760098654 0  -0.7897869392681683 0.6133812766635599 0  -0.8019018556596398 0.59745578404567 0  -0.8136956965509062 0.5812910746042258 0  -0.8251637397763595 0.5648936205678839 0  -0.836301393617339 0.5482699873544935 0  -0.8471041986406197 0.5314268309423542 0  -0.8575678294839372 0.5143708952052097 0  -0.8676880965878292 0.497109009212054 0  -0.8774609478731045 0.4796480844928216 0  -0.8868824703632656 0.4619951122710621 0  -0.8959488917512338 0.4441571606647088 0  -0.904656581909754 0.426141371856055 0  -0.9130020543448703 0.4079549592320783 0  -0.920981967591891 0.3896052044962555 0  -0.9285931265532872 0.3710994547530226 0  -0.9358324837779861 0.3524451195660473 0  -0.9426971406815462 0.3336496679914984 0  -0.9491843487067303 0.3147206255874888 0  -0.9552915104240065 0.2956655714008993 0  -0.9610161805715396 0.2764921349327862 0  -0.9663560670342555 0.2572079930835851 0  -0.9713090317615876 0.2378208670793361 0  -0.9758730916235353 0.2183385193801658 0  -0.9800464192046954 0.198768750572253 0  -0.9838273435359444 0.1791193962445354 0  -0.987214350763483 0.159398323851397 0  -0.9902060847549714 0.1396134295625972 0  -0.9928013476425149 0.1197726351017052 0  -0.9949991003022804 0.09988388457430147 0  -0.9967984627705549 0.07995514128721509 0  -0.9981987145960756 0.05999438456007793 0  -0.9991992951284931 0.04000960653046362 0  -0.9997998037428526 0.02000880895389464 0  -1 1.224646799147353e-16 0  -0.9997998037428526 -0.0200088089538944 0  -0.9991992951284931 -0.04000960653046338 0  -0.9981987145960756 -0.05999438456007812 0  -0.9967984627705549 -0.07995514128721484 0  -0.9949991003022806 -0.09988388457430078 0  -0.9928013476425149 -0.1197726351017049 0  -0.9902060847549715 -0.1396134295625965 0  -0.9872143507634831 -0.1593983238513963 0  -0.9838273435359444 -0.1791193962445356 0  -0.9800464192046953 -0.1987687505722532 0  -0.9758730916235354 -0.2183385193801655 0  -0.9713090317615876 -0.2378208670793363 0  -0.9663560670342556 -0.2572079930835848 0  -0.9610161805715396 -0.276492134932786 0  -0.9552915104240066 -0.2956655714008991 0  -0.9491843487067305 -0.3147206255874881 0  -0.9426971406815464 -0.3336496679914978 0  -0.9358324837779862 -0.3524451195660471 0  -0.9285931265532875 -0.371099454753022 0  -0.9209819675918909 -0.3896052044962557 0  -0.9130020543448704 -0.407954959232078 0  -0.9046565819097541 -0.4261413718560548 0  -0.8959488917512338 -0.4441571606647086 0  -0.8868824703632655 -0.4619951122710623 0  -0.8774609478731046 -0.4796480844928214 0  -0.8676880965878293 -0.4971090092120538 0  -0.8575678294839373 -0.5143708952052095 0  -0.84710419864062 -0.5314268309423537 0  -0.8363013936173395 -0.5482699873544929 0  -0.8251637397763596 -0.5648936205678838 0  -0.8136956965509061 -0.5812910746042259 0  -0.8019018556596399 -0.5974557840456699 0  -0.7897869392681682 -0.61338127666356 0  -0.777355798098326 -0.6290611760098652 0  -0.7646134094859816 -0.6444892039702625 0  -0.7515648753881492 -0.6596591832778468 0  -0.7382154203402048 -0.6745650399864603 0  -0.7245703893640192 -0.6892008059026583 0  -0.7106352458278522 -0.7035606209753272 0  -0.6964155692588621 -0.7176387356420046 0  -0.6819170531091017 -0.7314295131309637 0  -0.667145502475907 -0.7449274317181303 0  -0.6521068317775756 -0.758127086937944 0  -0.6368070623852792 -0.7710231937472641 0  -0.6212523202121544 -0.7836105886414596 0  -0.6054488332605283 -0.795884231721841 0  -0.5894029291282762 -0.8078392087135956 0  -0.5731210324752977 -0.8194707329334274 0  -0.5566096624511304 -0.8307741472061095 0  -0.5398754300847344 -0.8417449257291802 0  -0.5229250356374798 -0.8523786758850437 0  -0.5057652659204195 -0.8626711399997379 0  -0.4884029915768943 -0.872618197047678 0  -0.4708451643315825 -0.8822158643016828 0  -0.4530988142070805 -0.8914602989276289 0  -0.4351710467091333 -0.900347799523094 0  -0.4170690399816467 -0.9088748075993677 0  -0.3988000419326073 -0.9170379090062475 0  -0.3803713673320777 -0.9248338352990366 0  -0.3617903948834162 -0.9322594650472055 0  -0.3430645642688988 -0.9393118250841893 0  -0.3242013731709283 -0.9459880916978207 0  -0.3052083742700169 -0.9522855917609241 0  -0.2860931722207477 -0.9582018038016155 0  -0.2668634206069305 -0.963734359012881 0  -0.2475268188771631 -0.968881042201029 0  -0.2280911092620301 -0.9736397926726376 0  -0.2085640736741706 -0.9780087050596407 0  -0.1889535305924619 -0.9819860300822225 0  -0.1692673319315544 -0.9855701752492173 0  -0.1495133598980269 -0.9887597054957302 0  -0.1296995238344092 -0.9915533437577262 0  -0.1098337570523396 -0.9939499714833577 0  -0.08992401365612945 -0.9959486290808237 0  -0.06997826535799691 -0.9975485163025836 0  -0.05000449828625168 -0.9987489925657699 0  -0.030010709787
[...]
<PointData  Scalars="Displacement"> 
<DataArray  type="Float64"  Name="Displacement"  format="ascii">0.0000000000000000e+00  0.0000000000000000e+00  0.0000000000000000e+00  0.0000000000000000e+00  0.0000000000000000e+00  0.0000000000000000e+00  0.0000000000000000e+00  0.0000000000000000e+00  0.0000000000000000e+00  0.0000000000000000e+00  0.0000000000000000e+00  0.0000000000000000e+00  0.0000000000000000e+00  0.0000000000000000e+00  0.0000000000000000e+00  0.0000000000000000e+00  0.0000000000000000e+00  0.0000000000000000e+00  0.0000000000000000e+00  0.0000000000000000e+00  0.0000000000000000e+00  0.0000000000000000e+00  0.0000000000000000e+00  0.0000000000000000e+00  0.0000000000000000e+00  0.0000000000000000e+00  0.0000000000000000e+00  0.0000000000000000e+00  0.0000000000000000e+00  0.0000000000000000e+00  0.0000000000000000e+00  0.0000000000000000e+00  0.0000000000000000e+00  0.0000000000000000e+00  0.0000000000000000e+00  0.0000000000000000e+00  0.0000000000000000e+00  0.0000000000000000e+00  0.0000000000000000e+00  0.0000000000000000e+00  0.0000000000000000e+00  0.0000000000000000e+00  0.0000000000000000e+00  0.0000000000000000e+00  0.0000000000000000e+00  0.0000000000000000e+00  0.0000000000000000e+00  0.0000000000000000e+00  0.0000000000000000e+00  0.0000000000000000e+00  0.0000000000000000e+00  0.0000000000000000e+00  0.0000000000000000e+00  0.0000000000000000e+00  0.0000000000000000e+00  0.0000000000000000e+00  0.0000000000000000e+00  0.0000000000000000e+00  0.0000000000000000e+00  0.0000000000000000e+00  0.0000000000000000e+00  0.0000000000000000e+00  0.0000000000000000e+00  0.0000000000000000e+00  0.0000000000000000e+00  0.0000000000000000e+00  0.0000000000000000e+00  0.0000000000000000e+00  0.0000000000000000e+00  0.0000000000000000e+00  0.0000000000000000e+00  0.0000000000000000e+00  0.0000000000000000e+00  0.0000000000000000e+00  0.0000000000000000e+00  0.0000000000000000e+00  0.0000000000000000e+00  0.0000000000000000e+00  0.0000000000000000e+00  0.0000000000000000e+00  0.0000000000000000e+00  0.0000000000000000e+00  0.0000000000000000e+00  0.0000000000000000e+00  0.0000000000000000e+00  0.0000000000000000e+00  0.0000000000000000e+00  0.0000000000000000e+00  0.0000000000000000e+00  0.0000000000000000e+00  0.0000000000000000e+00  0.0000000000000000e+00  0.0000000000000000e+00  0.0000000000000000e+00  0.0000000000000000e+00  0.0000000000000000e+00  0.0000000000000000e+00  0.0000000000000000e+00  0.0000000000000000e+00  0.0000000000000000e+00  0.0000000000000000e+00  0.0000000000000000e+00  0.0000000000000000e+00  0.0000000000000000e+00  0.0000000000000000e+00  0.0000000000000000e+00  0.0000000000000000e+00  0.0000000000000000e+00  0.0000000000000000e+00  0.0000000000000000e+00  0.0000000000000000e+00  0.0000000000000000e+00  0.0000000000000000e+00  0.0000000000000000e+00  0.0000000000000000e+00  0.0000000000000000e+00  0.0000000000000000e+00  0.0000000000000000e+00  0.0000000000000000e+00  0.0000000000000000e+00  0.0000000000000000e+00  0.0000000000000000e+00  0.0000000000000000e+00  0.0000000000000000e+00  0.0000000000000000e+00  0.0000000000000000e+00  0.0000000000000000e+00  0.0000000000000000e+00  0.0000000000000000e+00  0.0000000000000000e+00  0.0000000000000000e+00  0.0000000000000000e+00  0.0000000000000000e+00  0.0000000000000000e+00  0.0000000000000000e+00  0.0000000000000000e+00  0.0000000000000000e+00  0.0000000000000000e+00  0.0000000000000000e+00  0.0000000000000000e+00  0.0000000000000000e+00  0.0000000000000000e+00  0.0000000000000000e+00  0.0000000000000000e+00  0.0000000000000000e+00  0.0000000000000000e+00  0.0000000000000000e+00  0.0000000000000000e+00  0.0000000000000000e+00  0.0000000000000000e+00  0.0000000000000000e+00  0.0000000000000000e+00  0.0000000000000000e+00  0.0000000000000000e+00  0.0000000000000000e+00  0.0000000000000000e+00  0.0000000000000000e+00  0.0000000000000000e+00  0.0000000000000000e+00  0.0000000000000000e+00  0.0000000000000000e+00  0.0000000000000000e+00  0.0000000000000000e+00  0.0000000000000000e+00  0.0000000000000000e+00  0.0000000000000000e+00  0.0000000000000000e+00  0.0000000000000000e+00  0.0000000000000000e+00  0.0000000000000000e+00  0.0000000000000000e+00  0.0000000000000000e+00  0.0000000000000000e+00  0.0000000000000000e+00  0.0000000000000000e+00  0.0000000000000000e+00  0.0000000000000000e+00  0.0000000000000000e+00  0.0000000000000000e+00  0.0000000000000000e+00  0.0000000000000000e+00  0.0000000000000000e+00  0.0000000000000000e+00  0.0000000000000000e+00  0.0000000000000000e+00  0.0000000000000000e+00  0.0000000000000000e+00  0.0000000000000000e+00  0.0000000000000000e+00  0.0000000000000000e+00  0.0000000000000000e+00  0.0000000000000000e+00  0.0000000000000000e+00  0.0000000000000000e+00  0.0000000000000000e+00  0.0000000000000000e+00  0.0000000000000000e+00  0.0000000000000000e+00  0.0000000000000000e+00  0.0000000000000000e+00  0.0000000000000000e+00  0.0000000000000000e+00  0.0000000000000000e+00  0.0000000000000000e+00  0.0000000000000000e+00  0.0000000000000000e+00  0.0000000000000000e+00  0.0000000000000000e+00  0.0000000000000000e+00  0.0000000000000000e+00  0.0000000000000000e+00  0.0000000000000000e+00  0.0000000000000000e+00  0.0000000000000000e+00  0.0000000000000000e+00  0.0000000000000000e+00  0.0000000000000000e+00  0.0000000000000000e+00  0.0000000000000000e+00  0.0000000000000000e+00  0.0000000000000000e+00  0.0000000000000000e+00  0.0000000000000000e+00  0.0000000000000000e+00  0.0000000000000000e+00  0.0000000000000000e+00  0.0000000000000000e+00  0.0000000000000000e+00  0.0000000000000000e+00  0.0000000000000000e+00  0.0000000000000000e+00  0.0000000000000000e+00  0.0000000000000000e+00  0.0000000000000000e+00  0.0000000000000000e+00  0.0000000000000000e+00  0.0000000000000000e+00  0.0000000000000000e+00  0.0000000000000000e+00  0.0000000000000000e+00  0.0000000000000000e+00  0.0000000000000000e+00  0.0000000000000000e+00  0.0000000000000000e+00  0.0000000000000000e+00  0.0000000000000000e+00  0.0000000000000000e+00  0.0000000000000000e+00  0.0000000000000000e+00  0.0000000000000000e+00  0.0000000000000000e+00  0.0000000000000000e+00  0.0000000000000000e+00  0.0000000000000000e+00  0.0000000000000000e+00  0.0000000000000000e+00  0.0000000000000000e+00  0.0000000000000000e+00  0.0000000000000000e+00  0.0000000000000000e+00  0.0000000000000000e+00  0.0000000000000000e+00  0.0000000000000000e+00  0.0000000000000000e+00  0.0000000000000000e+00  0.0000000000000000e+00  0.0000000000000000e+00  0.0000000000000000e+00  0.0000000000000000e+00  0.0000000000000000e+00  0.0000000000000000e+00  0.0000000000000000e+00  0.0000000000000000e+00  0.0000000000000000e+00  0.0000000000000000e+00  0.0000000000000000e+00  0.0000000000000000e+00  0.0000000000000000e+00  0.0000000000000000e+00  0.0000000000000000e+00  0.0000000000000000e+00  0.0000000000000000e+00  0.0000000000000000e+00  0.0000000000000000e+00  0.0000000000000000e+00  0.0000000000000000e+00  0.0000000000000000e+00  0.0000000000000000e+00  0.0000000000000000e+00  0.0000000000000000e+00  0.0000000000000000e+00  0.0000000000000000e+00  0.0000000000000000e+00  0.0000000000000000e+00  0.0000000000000000e+00  0.0000000000000000e+00  0.0000000000000000e+00  0.0000000000000000e+00  0.0000000000000000e+00  0.0000000000000000e+00  0.0000000000000000e+00  0.0000000000000000e+00  0.0000000000000000e+00  0.0000000000000000e+00  0.0000000000000000e+00  0.0000000000000000e+00  0.0000000000000000e+00  0.0000000000000000e+00  0.0000000000000000e+00  0.0000000000000000e+00  0.0000000000000000e+00  0.0000000000000000e+00  0.0000000000000000e+00  0.0000000000000000e+00  -5.1914845158824227e+64  1.8023333259637366e+59  -4.2092054808559472e+60  -7.2417115828623776e+59  -4.5224554480789285e+60  3.0910943930545119e+59  -1.9197626585364170e+58  3.8706314453883910e+55  5.1559113776921977e+55  -8.3221245995061098e+54  -3.0700388078360784e+55  -1.9674514247611442e+64  2.8914858100709840e+53  -6.4104669432270790e+53  3.9722823289646115e+64  -1.5238926571142130e+64  -3.2586432928875276e+53  -1.7363602651229707e+53  1.9319503234985369e+52  -1.0875023905332207e+53  -2.6338680731974680e+52  -1.7013662413231142e+53  -4.2653776707260876e+52  4.4435558991530241e+61  -4.5899223358830247e+63  -1.0769583696438083e+64  -2.5808270766934313e+53  -1.7671406280164646e+51  -2.0206384884616830e+52  -3.1224981199961365e+61  -7.7459497765693276e+51  -1.7539246451898651e+64  -4.1534014656016375e+65  9.3084283229860179e+61  -3.7466525494743451e+52  -5.3225114518466526e+50  -1.7752874386352840e+50  1.6694834288433614e+50  -1.6406271548818587e+50  9.8440315245769262e+58  -8.9602503020047414e+59  2.4523254377135553e+57  -5.9718772106901871e+57  9.9962477322956367e+64  2.0308620009942496e+50  5.6788169364753509e+50  -6.5311030743006646e+49  -3.4588985030252465e+50  6.0506770980306465e+57  3.2733779671280796e+57  -3.4210757537077803e+55  8.2906696670232826e+57  5.4063492366757504e+57  -8.3591113193301766e+60  4.2521033427200936e+50  4.1285533826222380e+64  1.4647527098373591e+50  1.7354078297213244e+49  3.0463738666972790e+61  -6.9552269210424026e+49  -1.5911625275630144e+48  -2.6516572156937341e+54  1.3612134290825741e+49  1.0389945268320732e+49  3.6446635815333223e+64  -1.2821650441749245e+65  4.0518189004717151e+64  2.8453036007176961e+60  4.6347867711854793e+63  6.0904302972238098e+63  1.3897244461067049e+63  -2.5996172455180770e+58  -7.8918084053817686e+56  -2.5568538359500273e+57  -2.3010686137147961e+56  -5.0910137365245225e+62  5.8470558566105055e+48  1.0104883312952186e+61  -2.0735330192650531e+63  4.3443730438069728e+56  -2.6026179661672226e+49  4.7973202904042830e+61  2.1668314698989789e+49  -1.5912066276643013e+49  4.0435142611231437e+48  -6.9554907989297711e+66  -2.7315823291504898e+49  1.0299683216943270e+47  -1.7696579849907305e+49  -2.8986435146922635e+63  1.7047372673325654e+54  -9.7322903332189653e+48  1.3764510798381824e+55  -2.4311336854382003e+48  3.2271796917360442e+54  1.7649148980323624e+66  -8.9332950016240676e+47  5.6707126284590465e+48  3.0576416349093349e+54  -2.6241566839615241e+53  1.9544263575738981e+56  1.0005591090089986e+55  2.6684982213482874e+49  1.4223406749498030e+61  -4.5244027312973176e+58  3.5413544308062882e+58  4.9159411906270978e+60  1.1983642267635783e+55  -2.7443006684009054e+54  8.9906443632545965e+47  1.3589697665166360e+60  3.3247708421600482e+48  1.5591159124457972e+48  -1.7945081763168961e+58  -2.5631460114339431e+57  9.5301794665186683e+52  -1.1872495676367559e+48  -3.0306825343399983e+48  2.0258086020191435e+46  -2.3293171369191448e+64  1.6906838138736708e+62  -2.0294839112989076e+51  5.1796388460343203e+65  -2.3588651313855084e+49  -3.8721574565148938e+53  3.6057474728788797e+54  -5.1071598486441418e+47  9.2274872514458406e+47  6.0785056945641908e+52  -1.5166499212145515e+53  -5.5879700381850580e+55  -1.0111691161125283e+53  -5.1924921667303893e+57  8.5401957254259886e+59  4.6072618614166191e+56  3.4761549660061243e+53  -2.6253955505608241e+46  2.6182894832055834e+67  -7.1373044585191045e+62  -5.3707563158547456e+62  2.1893913494632261e+64  -1.2883386954640909e+67  -5.1835593351932567e+51  8.4126911254052544e+61  5.7702814385707453e+56  -1.1936748205462834e+52  5.7410511898437984e+50  -3.8881708921310169e+62  -3.4889489408118503e+66  8.1584542345178550e+55  -3.2981388038829612e+47  -4.5667069315636419e+57  -3.5323375934758010e+63  -6.3020371667524240e+52  1.3432559799821740e+52  -1.2988070608145554e+50  2.8459066949108496e+47  -2.8592166651095712e+52  -8.0875096332308927e+46  3.0646114762040189e+46  3.3526184675702287e+46  -5.4044261748013736e+50  -2.9299169689043316e+55  1.1445155111759830e+48  5.5604365559578769e+50  -4.7667986812011542e+58  -1.0599996215554439e+53  -2.3052182439590146e+49  4.4171628145431319e+47  -1.5157578001397630e+52  -6.3139785170047702e+58  -3.8676393473577842e+64  -3.0005175399633549e+51  4.7792711281051932e+62  -2.8357216971907006e+46  -2.7624845414593630e+59  4.3814626318771497e+47  9.9841678693603619e+52  1.1241547357336915e+47  2.1831276814640427e+60  -7.9680582519929311e+51  -4.6042799256016256e+60  5.3003256595327620e+56  -6.3770772938265042e+66  -2.9222677914152171e+47  4.8398057773078743e+56  1.1935289997728063e+55  -1.3803073905569393e+60  3.6508416222489490e+47  3.5507406044878710e+50  2.3394253546081043e+47  5.3113486868213997e+64  -6.4699693370320746e+47  4.5818411403721031e+47  4.0232646438755008e+59  -1.3070310702963584e+63  -5.0718382867424346e+51  2.4795458712664897e+52  -1.6441904088559598e+58  -5.3239577237839914e+54  1.4681789752756762e+57  9.9553689416443625e+57  -1.4717980451714087e+59  7.3827385248594271e+54  8.1364337190685042e+56  1.8110184637232614e+52  -5.9359999218842812e+51  -2.3629928106422450e+64  3.2411505347159516e+47  -2.6880010357242649e+52  -5.3570898476269469e+52  2.7211136329050770e+64  -6.7037269715260292e+63  1.0022724290162309e+48  -1.5806313358887481e+46  -1.8539773171391781e+52  -4.1623932597288279e+61  -1.9910071637962666e+46  -5.2524957581372623e+54  5.7593651180397384e+55  1.0655286815193585e+50  -1.6984868655168632e+55  1.1129614082555441e+61  1.7534591537083799e+56  7.6666383071402437e+55  -7.3721632271821234e+46  3.4389788294449026e+53  -2.3010634911706778e+47  -3.2131416550069252e+54  -1.3879232522223121e+46  -1.0930098342270522e+48  -3.8313443248219975e+47  -3.4047413190672426e+46  -1.4853857081476273e+50  -5.0263861852655666e+46  -1.2478537677938537e+59  -6.0508320616654810e+56  -2.1803752590557214e+50  3.1432574819752220e+50  1.5903588962975390e+64  -2.0099175966282841e+64  -2.8917379479108951e+56  -6.7821634332075922e+56  1.8670134207057486e+47  -8.3834680164163578e+59  -1.7852350083507677e+48  6.3912348120784747e+46  2.0739050040555987e+45  -2.5492779836263880e+61  1.2533794006841465e+58  3.8030067349076122e+57  3.7903111343734191e+57  9.6230405119446174e+64  -1.1401814960688046e+65  -1.4174950615148929e+50  6.8123861440952643e+62  9.1411186649621039e+52  2.2071935609530288e+59  -1.6007239451741016e+47  -5.4153281260254536e+46  -1.1420841814874971e+47  5.9317583187110591e+54  3.3007966941673963e+50  3.2541611431190533e+57  9.7994921862538455e+60  -2.8888383981600596e+61  -2.0941029176160685e+50  6.8636060276537642e+47  1.2128568095470925e+48  4.4636858879113060e+57  -1.2444819086538900e+46  4.7013490347736709e+63  -3.5205204553017905e+61  4.7906298677690989e+53  -2.9152382598078560e+51  4.6974676737838119e+53  2.9283843924321090e+63  4.1741077914235992e+63  1.5284403977669201e+62  2.1385701252428975e+61  -2.0716838996542740e+63  -1.2380532389758043e+62  -9.3512086800221649e+65  -2.4541457359902348e+56  6.8893292913428365e+54  -7.8028168928401489e+51  -1.7762888767287469e+66  8.7525803585314901e+47  -1.6038826898720964e+50  -7.4276415319096852e+61  -7.9282121675768322e+65  9.7593184737981435e+60  -1.3086889429304896e+57  -2.3416312954612796e+59  -1.3488962993029292e+66  -7.0410843056134420e+46  3.0542218159621108e+59  1.2833936898121822e+47  4.3391825104541392e+46  -5.5239296051208003e+46  4.7814086366516290e+63  9.6979610823215881e+62  -2.0581266228547766e+64  -4.7143271604657063e+64  3.6455999092832221e+55  -2.4466365242760940e+55  -4.3016256851619303e+53  -2.1502832931641730e+57  -2.3867864533319953e+56  -1.6740581613874357e+56  -1.4028302705633247e+60  4.7113970101736997e+56  9.1602138472941394e+63  -7.2812725750749019e+52  5.3060996283874281e+64  -3.6355649494178736e+63  -4.8077843930291137e+56  2.8367445764916321e+53  2.2644270654014212e+54  1.7908945741513850e+44  -6.7484716464812632e+51  -6.1505043678673718e+51  1.1155680331967628e+47  2.3714208774361668e+61  3.0423315050195593e+46  -1.3475835738542986e+46  2.2985251576868714e+48  -7.7402251539269863e+62  -7.1579478193735449e+61  -6.7785875429209218e+64  -1.1165651814910878e+47  -3.3358870239117004e+53  2.3367241654113211e+55  5.2496515131362726e+60  -2.4105860473492220e+61  -5.5726901158005239e+52  4.9130928932220949e+60  -1.0240340057291321e+62  -1.4893787738702121e+67  5.1665125567981618e+54  7.4503916236152393e+50  -7.3515283125203748e+59  3.7378723062353933e+49  -2.9476574689153913e+49  1.7127647795532626e+54  -2.5450148198932065e+46  5.6026712675676192e+51  -1.1857837942394649e+52  -1.2292162434842651e+46  -5.2864774295011106e+54  -3.9143534569785658e+55  -2.4611677915894939e+47  3.3650713771856848e+49  -9.1565024372471416e+45  -2.3457365784207479e+51  -2.0515675522995523e+50  -2.5341497577327138e+56  -8.0172760060125455e+65  -5.1615522242768456e+48  -1.0193982936250476e+64  -3.9007181750207449e+64  -2.4928949174923384e+51  2.2515213152076321e+47  -1.0397259829464710e+57  -3.7417926522234781e+49  -2.2740376639526656e+65  4.2170408957237915e+49  6.1902505420774698e+52  -5.0654369358883036e+64  1.6540245327499364e+50  1.3316052822861104e+46  -4.9912267738916796e+46  1.0605109329454013e+51  -5.1424647425112357e+62  4.1827806254909160e+61  -1.5890618791966395e+51  -8.4716677776428788e+47  5.8780648486590101e+64  -1.0580120006550581e+56  5.1332631173565711e+46  1.6882445396016126e+59  1.5281894976149093e+47  2.3922766585482102e+50  2.1262767727057910e+60  1.2400721406119772e+46  -1.2337877798750249e+66  -1.2335238529840419e+46  7.3836061294815927e+50  -1.2421692474319922e+46  6.7486217160819584e+60  -2.6511673681366469e+57  2.9098152882225816e+53  5.9497529854499056e+58  -7.8016968953080428e+45  4.8528545758110649e+50  -6.1495130114248168e+60  -1.3118516616388707e+48  4.7503952414745804e+57  -9.6021883421670938e+52  -2.9418053219131399e+46  -8.5792704454457367e+45  -1.7000723156832064e+59  2.0085594066208659e+48  1.0537512163260711e+61  5.0773202305060201e+52  3.6132122842024227e+59  -1.6920924932933200e+58  5.2745593162498155e+45  4.5137658983865848e+49  -1.0631900452287768e+51  -6.3909837402104684e+49  6.5142726149275833e+49  -3.0335513331491434e+62  8.5927202971290912e+62  -9.1110533188135698e+66  -3.5387783586220403e+62  5.9186827846128959e+50  -1.8315576346207927e+65  7.4654972676876870e+61  7.4102402423205718e+49  -7.4976422883741672e+45  -9.2915665328490238e+45  -1.1431792137616700e+56  5.7933927885183922e+55  3.1758683379480323e+52  -1.0527946133837648e+62  1.8890396131920453e+54  1.5870401153528142e+46  8.6743242401581163e+45  -9.5916764850267192e+46  -6.3060139443119795e+55  -1.8368848487020842e+48  -4.2231021373146282e+52  1.0247959136338248e+49  -8.3611825564270942e+49  1.0037572971393879e+50  -1.3898828579445438e+56  -2.0420620739231019e+50  -2.9254685758342517e+60  6.0186875554217355e+57  -1.0616844880689334e+59  9.2309069496835436e+56  5.4783043139883500e+58  -3.6967754768136603e+59  1.0501922577954280e+50  -1.8473704658774054e+61  -2.8773512846736524e+52  2.5258061160715687e+66  -1.5567272607391501e+54  -2.5538825625089284e+60  -6.5411674009645004e+57  2.7964427044719018e+64  -8.8906340708303748e+49  1.7475809127648879e+45  -6.3439496009214707e+45  -1.7338474532873217e+65  -2.5567062509152964e+54  5.2856769387430251e+59  8.5441976314858790e+58  -4.7299559519809221e+48  2.1783439304430136e+57  -5.9046999718137681e+45  4.4904357747250202e+65  2.1273393028692380e+65  -2.9427616232748252e+61  -3.5704648942595737e+52  9.6528909953188840e+49  -4.2575784181538176e+48  -9.7900666512460570e+53  3.0987952418616118e+54  -2.0609781508608951e+57  -9.3562334306554278e+48  -1.6190743169828724e+61  9.3667585402607827e+58  -1.3167878106312277e+52  5.1035963765001140e+65  -2.7062606593359764e+52  1.7833083579085208e+58  1.4933432421886849e+54  4.2835242839232343e+56  6.8054884745150993e+54  -6.0395664727057514e+51  -5.2932251315681086e+45  6.4903380165158003e+49  7.7024402504289299e+44  4.3991251063158686e+48  6.4820690687704168e+46  7.4148000848204792e+61  1.5613620364978162e+51  7.9558228680202834e+56  4.6406719740612473e+51  -8.7042468078832268e+61  9.6267237370570731e+58  -2.0569416376877496e+64  -1.1275495011827135e+47  -1.7254062628205152e+62  -7.3908668703123806e+45  5.0544830739622552e+45  4.4230773035578546e+46  2.2094953321408379e+58  3.4469655437180813e+48  -3.8074637159637448e+47  1.3159903016297545e+59  3.8208968481936254e+58