<?xml version="1.0"?>
<VTKFile type="UnstructuredGrid"  version="0.1"  >
<UnstructuredGrid>
<Piece  NumberOfPoints="20054" NumberOfCells="39478">
<Points>
<DataArray  type="Float64"  NumberOfComponents="3"  format="ascii">1 0 0  0.9997998037428526 0.02000880895389431 0  0.9991992951284931 0.04000960653046352 0  0.9981987145960756 0.05999438456007805 0  0.9967984627705549 0.07995514128721501 0  0.9949991003022806 0.09988388457430118 0  0.9928013476425149 0.1197726351017051 0  0.9902060847549715 0.139613429562597 0  0.987214350763483 0.1593983238513969 0  0.9838273435359444 0.1791193962445356 0  0.9800464192046954 0.198768750572253 0  0.9758730916235354 0.2183385193801655 0  0.9713090317615876 0.237820867079336 0  0.9663560670342555 0.2572079930835849 0  0.9610161805715396 0.2764921349327862 0  0.9552915104240066 0.2956655714008991 0  0.9491843487067304 0.3147206255874884 0  0.9426971406815462 0.3336496679914983 0  0.9358324837779861 0.3524451195660473 0  0.9285931265532873 0.3710994547530225 0  0.9209819675918909 0.3896052044962556 0  0.9130020543448703 0.4079549592320781 0  0.9046565819097542 0.4261413718560547 0  0.8959488917512338 0.4441571606647087 0  0.8868824703632656 0.4619951122710622 0  0.8774609478731046 0.4796480844928215 0  0.8676880965878291 0.4971090092120542 0  0.8575678294839372 0.5143708952052096 0  0.8471041986406199 0.5314268309423539 0  0.8363013936173391 0.5482699873544935 0  0.8251637397763597 0.5648936205678837 0  0.8136956965509062 0.5812910746042258 0  0.8019018556596399 0.5974557840456699 0  0.7897869392681683 0.6133812766635599 0  0.777355798098326 0.6290611760098652 0  0.7646134094859813 0.6444892039702628 0  0.7515648753881492 0.6596591832778468 0  0.7382154203402046 0.6745650399864606 0  0.7245703893640189 0.6892008059026586 0  0.7106352458278521 0.7035606209753273 0  0.6964155692588616 0.7176387356420051 0  0.6819170531091018 0.7314295131309636 0  0.6671455024759069 0.7449274317181303 0  0.6521068317775753 0.7581270869379442 0  0.6368070623852795 0.7710231937472638 0  0.6212523202121545 0.7836105886414595 0  0.6054488332605282 0.795884231721841 0  0.5894029291282759 0.8078392087135958 0  0.5731210324752972 0.8194707329334278 0  0.5566096624511305 0.8307741472061095 0  0.5398754300847343 0.8417449257291802 0  0.5229250356374803 0.8523786758850435 0  0.5057652659204196 0.8626711399997378 0  0.4884029915768944 0.8726181970476778 0  0.4708451643315825 0.8822158643016828 0  0.45309881420708 0.8914602989276292 0  0.4351710467091336 0.9003477995230937 0  0.4170690399816468 0.9088748075993677 0  0.398800041932607 0.9170379090062476 0  0.3803713673320772 0.9248338352990368 0  0.3617903948834157 0.9322594650472057 0  0.3430645642688987 0.9393118250841893 0  0.3242013731709288 0.9459880916978206 0  0.3052083742700172 0.952285591760924 0  0.2860931722207478 0.9582018038016155 0  0.2668634206069304 0.963734359012881 0  0.2475268188771628 0.9688810422010291 0  0.2280911092620296 0.9736397926726377 0  0.2085640736741707 0.9780087050596407 0  0.1889535305924618 0.9819860300822225 0  0.1692673319315541 0.9855701752492174 0  0.1495133598980264 0.9887597054957302 0  0.1296995238344084 0.9915533437577263 0  0.1098337570523395 0.9939499714833577 0  0.08992401365612977 0.9959486290808237 0  0.06997826535799723 0.9975485163025836 0  0.05000449828625179 0.9987489925657699 0  0.03001070978771124 0.9995495772086734 0  0.01000490522562346 0.9999499496831961 0  -0.01000490522562333 0.9999499496831961 0  -0.03001070978771133 0.9995495772086734 0  -0.05000449828625144 0.9987489925657699 0  -0.06997826535799688 0.9975485163025836 0  -0.08992401365612987 0.9959486290808237 0  -0.1098337570523394 0.9939499714833577 0  -0.1296995238344082 0.9915533437577263 0  -0.1495133598980262 0.9887597054957303 0  -0.1692673319315537 0.9855701752492174 0  -0.1889535305924614 0.9819860300822226 0  -0.2085640736741705 0.9780087050596407 0  -0.2280911092620295 0.9736397926726377 0  -0.2475268188771627 0.9688810422010291 0  -0.2668634206069302 0.9637343590128811 0  -0.2860931722207475 0.9582018038016156 0  -0.3052083742700173 0.9522855917609239 0  -0.3242013731709289 0.9459880916978205 0  -0.3430645642688986 0.9393118250841894 0  -0.3617903948834154 0.9322594650472058 0  -0.380371367332077 0.924833835299037 0  -0.3988000419326071 0.9170379090062476 0  -0.4170690399816465 0.9088748075993678 0  -0.4351710467091335 0.9003477995230939 0  -0.4530988142070799 0.8914602989276292 0  -0.4708451643315824 0.8822158643016829 0  -0.4884029915768945 0.8726181970476778 0  -0.5057652659204197 0.8626711399997378 0  -0.5229250356374801 0.8523786758850437 0  -0.5398754300847342 0.8417449257291804 0  -0.5566096624511303 0.8307741472061098 0  -0.5731210324752971 0.8194707329334279 0  -0.589402929128276 0.8078392087135957 0  -0.6054488332605281 0.7958842317218411 0  -0.6212523202121542 0.7836105886414597 0  -0.6368070623852793 0.7710231937472639 0  -0.652106831777575 0.7581270869379444 0  -0.6671455024759069 0.7449274317181304 0  -0.6819170531091018 0.7314295131309636 0  -0.6964155692588616 0.7176387356420052 0  -0.7106352458278521 0.7035606209753273 0  -0.7245703893640187 0.6892008059026588 0  -0.7382154203402043 0.6745650399864608 0  -0.751564875388149 0.6596591832778469 0  -0.7646134094859813 0.6444892039702628 0  -0.7773557980983258 0.6290611760098654 0  -0.7897869392681683 0.6133812766635599 0  -0.8019018556596398 0.59745578404567 0  -0.8136956965509062 0.5812910746042258 0  -0.8251637397763595 0.5648936205678839 0  -0.836301393617339 0.5482699873544935 0  -0.8471041986406197 0.5314268309423542 0  -0.8575678294839372 0.5143708952052097 0  -0.8676880965878292 0.497109009212054 0  -0.8774609478731045 0.4796480844928216 0  -0.8868824703632656 0.4619951122710621 0  -0.8959488917512338 0.4441571606647088 0  -0.904656581909754 0.426141371856055 0  -0.9130020543448703 0.4079549592320783 0  -0.920981967591891 0.3896052044962555 0  -0.9285931265532872 0.3710994547530226 0  -0.9358324837779861 0.3524451195660473 0  -0.9426971406815462 0.3336496679914984 0  -0.9491843487067303 0.3147206255874888 0  -0.9552915104240065 0.2956655714008993 0  -0.9610161805715396 0.2764921349327862 0  -0.9663560670342555 0.2572079930835851 0  -0.9713090317615876 0.2378208670793361 0  -0.9758730916235353 0.2183385193801658 0  -0.9800464192046954 0.198768750572253 0  -0.9838273435359444 0.1791193962445354 0  -0.987214350763483 0.159398323851397 0  -0.9902060847549714 0.1396134295625972 0  -0.9928013476425149 0.1197726351017052 0  -0.9949991003022804 0.09988388457430147 0  -0.9967984627705549 0.07995514128721509 0  -0.9981987145960756 0.05999438456007793 0  -0.9991992951284931 0.04000960653046362 0  -0.9997998037428526 0.02000880895389464 0  -1 1.224646799147353e-16 0  -0.9997998037428526 -0.0200088089538944 0  -0.9991992951284931 -0.04000960653046338 0  -0.9981987145960756 -0.05999438456007812 0  -0.9967984627705549 -0.07995514128721484 0  -0.9949991003022806 -0.09988388457430078 0  -0.9928013476425149 -0.1197726351017049 0  -0.9902060847549715 -0.1396134295625965 0  -0.9872143507634831 -0.1593983238513963 0  -0.9838273435359444 -0.1791193962445356 0  -0.9800464192046953 -0.1987687505722532 0  -0.9758730916235354 -0.2183385193801655 0  -0.9713090317615876 -0.2378208670793363 0  -0.9663560670342556 -0.2572079930835848 0  -0.9610161805715396 -0.276492134932786 0  -0.9552915104240066 -0.2956655714008991 0  -0.9491843487067305 -0.3147206255874881 0  -0.9426971406815464 -0.3336496679914978 0  -0.9358324837779862 -0.3524451195660471 0  -0.9285931265532875 -0.371099454753022 0  -0.9209819675918909 -0.3896052044962557 0  -0.9130020543448704 -0.407954959232078 0  -0.9046565819097541 -0.4261413718560548 0  -0.8959488917512338 -0.4441571606647086 0  -0.8868824703632655 -0.4619951122710623 0  -0.8774609478731046 -0.4796480844928214 0  -0.8676880965878293 -0.4971090092120538 0  -0.8575678294839373 -0.5143708952052095 0  -0.84710419864062 -0.5314268309423537 0  -0.8363013936173395 -0.5482699873544929 0  -0.8251637397763596 -0.5648936205678838 0  -0.8136956965509061 -0.5812910746042259 0  -0.8019018556596399 -0.5974557840456699 0  -0.7897869392681682 -0.61338127666356 0  -0.777355798098326 -0.6290611760098652 0  -0.7646134094859816 -0.6444892039702625 0  -0.7515648753881492 -0.6596591832778468 0  -0.7382154203402048 -0.6745650399864603 0  -0.7245703893640192 -0.6892008059026583 0  -0.7106352458278522 -0.7035606209753272 0  -0.6964155692588621 -0.7176387356420046 0  -0.6819170531091017 -0.7314295131309637 0  -0.667145502475907 -0.7449274317181303 0  -0.6521068317775756 -0.758127086937944 0  -0.6368070623852792 -0.7710231937472641 0  -0.6212523202121544 -0.7836105886414596 0  -0.6054488332605283 -0.795884231721841 0  -0.5894029291282762 -0.8078392087135956 0  -0.5731210324752977 -0.8194707329334274 0  -0.5566096624511304 -0.8307741472061095 0  -0.5398754300847344 -0.8417449257291802 0  -0.5229250356374798 -0.8523786758850437 0  -0.5057652659204195 -0.8626711399997379 0  -0.4884029915768943 -0.872618197047678 0  -0.4708451643315825 -0.8822158643016828 0  -0.4530988142070805 -0.8914602989276289 0  -0.4351710467091333 -0.900347799523094 0  -0.4170690399816467 -0.9088748075993677 0  -0.3988000419326073 -0.9170379090062475 0  -0.3803713673320777 -0.9248338352990366 0  -0.3617903948834162 -0.9322594650472055 0  -0.3430645642688988 -0.9393118250841893 0  -0.3242013731709283 -0.9459880916978207 0  -0.3052083742700169 -0.9522855917609241 0  -0.2860931722207477 -0.9582018038016155 0  -0.2668634206069305 -0.963734359012881 0  -0.2475268188771631 -0.968881042201029 0  -0.2280911092620301 -0.9736397926726376 0  -0.2085640736741706 -0.9780087050596407 0  -0.1889535305924619 -0.9819860300822225 0  -0.1692673319315544 -0.9855701752492173 0  -0.1495133598980269 -0.9887597054957302 0  -0.1296995238344092 -0.9915533437577262 0  -0.1098337570523396 -0.9939499714833577 0  -0.08992401365612945 -0.9959486290808237 0  -0.06997826535799691 -0.9975485163025836 0  -0.05000449828625168 -0.9987489925657699 0  -0.030010709787
[...]
<PointData  Scalars="Displacement"> 
<DataArray  type="Float64"  Name="Displacement"  format="ascii">0.0000000000000000e+00  0.0000000000000000e+00  0.0000000000000000e+00  0.0000000000000000e+00  0.0000000000000000e+00  0.0000000000000000e+00  0.0000000000000000e+00  0.0000000000000000e+00  0.0000000000000000e+00  0.0000000000000000e+00  0.0000000000000000e+00  0.0000000000000000e+00  0.0000000000000000e+00  0.0000000000000000e+00  0.0000000000000000e+00  0.0000000000000000e+00  0.0000000000000000e+00  0.0000000000000000e+00  0.0000000000000000e+00  0.0000000000000000e+00  0.0000000000000000e+00  0.0000000000000000e+00  0.0000000000000000e+00  0.0000000000000000e+00  0.0000000000000000e+00  0.0000000000000000e+00  0.0000000000000000e+00  0.0000000000000000e+00  0.0000000000000000e+00  0.0000000000000000e+00  0.0000000000000000e+00  0.0000000000000000e+00  0.0000000000000000e+00  0.0000000000000000e+00  0.0000000000000000e+00  0.0000000000000000e+00  0.0000000000000000e+00  0.0000000000000000e+00  0.0000000000000000e+00  0.0000000000000000e+00  0.0000000000000000e+00  0.0000000000000000e+00  0.0000000000000000e+00  0.0000000000000000e+00  0.0000000000000000e+00  0.0000000000000000e+00  0.0000000000000000e+00  0.0000000000000000e+00  0.0000000000000000e+00  0.0000000000000000e+00  0.0000000000000000e+00  0.0000000000000000e+00  0.0000000000000000e+00  0.0000000000000000e+00  0.0000000000000000e+00  0.0000000000000000e+00  0.0000000000000000e+00  0.0000000000000000e+00  0.0000000000000000e+00  0.0000000000000000e+00  0.0000000000000000e+00  0.0000000000000000e+00  0.0000000000000000e+00  0.0000000000000000e+00  0.0000000000000000e+00  0.0000000000000000e+00  0.0000000000000000e+00  0.0000000000000000e+00  0.0000000000000000e+00  0.0000000000000000e+00  0.0000000000000000e+00  0.0000000000000000e+00  0.0000000000000000e+00  0.0000000000000000e+00  0.0000000000000000e+00  0.0000000000000000e+00  0.0000000000000000e+00  0.0000000000000000e+00  0.0000000000000000e+00  0.0000000000000000e+00  0.0000000000000000e+00  0.0000000000000000e+00  0.0000000000000000e+00  0.0000000000000000e+00  0.0000000000000000e+00  0.0000000000000000e+00  0.0000000000000000e+00  0.0000000000000000e+00  0.0000000000000000e+00  0.0000000000000000e+00  0.0000000000000000e+00  0.0000000000000000e+00  0.0000000000000000e+00  0.0000000000000000e+00  0.0000000000000000e+00  0.0000000000000000e+00  0.0000000000000000e+00  0.0000000000000000e+00  0.0000000000000000e+00  0.0000000000000000e+00  0.0000000000000000e+00  0.0000000000000000e+00  0.0000000000000000e+00  0.0000000000000000e+00  0.0000000000000000e+00  0.0000000000000000e+00  0.0000000000000000e+00  0.0000000000000000e+00  0.0000000000000000e+00  0.0000000000000000e+00  0.0000000000000000e+00  0.0000000000000000e+00  0.0000000000000000e+00  0.0000000000000000e+00  0.0000000000000000e+00  0.0000000000000000e+00  0.0000000000000000e+00  0.0000000000000000e+00  0.0000000000000000e+00  0.0000000000000000e+00  0.0000000000000000e+00  0.0000000000000000e+00  0.0000000000000000e+00  0.0000000000000000e+00  0.0000000000000000e+00  0.0000000000000000e+00  0.0000000000000000e+00  0.0000000000000000e+00  0.0000000000000000e+00  0.0000000000000000e+00  0.0000000000000000e+00  0.0000000000000000e+00  0.0000000000000000e+00  0.0000000000000000e+00  0.0000000000000000e+00  0.0000000000000000e+00  0.0000000000000000e+00  0.0000000000000000e+00  0.0000000000000000e+00  0.0000000000000000e+00  0.0000000000000000e+00  0.0000000000000000e+00  0.0000000000000000e+00  0.0000000000000000e+00  0.0000000000000000e+00  0.0000000000000000e+00  0.0000000000000000e+00  0.0000000000000000e+00  0.0000000000000000e+00  0.0000000000000000e+00  0.0000000000000000e+00  0.0000000000000000e+00  0.0000000000000000e+00  0.0000000000000000e+00  0.0000000000000000e+00  0.0000000000000000e+00  0.0000000000000000e+00  0.0000000000000000e+00  0.0000000000000000e+00  0.0000000000000000e+00  0.0000000000000000e+00  0.0000000000000000e+00  0.0000000000000000e+00  0.0000000000000000e+00  0.0000000000000000e+00  0.0000000000000000e+00  0.0000000000000000e+00  0.0000000000000000e+00  0.0000000000000000e+00  0.0000000000000000e+00  0.0000000000000000e+00  0.0000000000000000e+00  0.0000000000000000e+00  0.0000000000000000e+00  0.0000000000000000e+00  0.0000000000000000e+00  0.0000000000000000e+00  0.0000000000000000e+00  0.0000000000000000e+00  0.0000000000000000e+00  0.0000000000000000e+00  0.0000000000000000e+00  0.0000000000000000e+00  0.0000000000000000e+00  0.0000000000000000e+00  0.0000000000000000e+00  0.0000000000000000e+00  0.0000000000000000e+00  0.0000000000000000e+00  0.0000000000000000e+00  0.0000000000000000e+00  0.0000000000000000e+00  0.0000000000000000e+00  0.0000000000000000e+00  0.0000000000000000e+00  0.0000000000000000e+00  0.0000000000000000e+00  0.0000000000000000e+00  0.0000000000000000e+00  0.0000000000000000e+00  0.0000000000000000e+00  0.0000000000000000e+00  0.0000000000000000e+00  0.0000000000000000e+00  0.0000000000000000e+00  0.0000000000000000e+00  0.0000000000000000e+00  0.0000000000000000e+00  0.0000000000000000e+00  0.0000000000000000e+00  0.0000000000000000e+00  0.0000000000000000e+00  0.0000000000000000e+00  0.0000000000000000e+00  0.0000000000000000e+00  0.0000000000000000e+00  0.0000000000000000e+00  0.0000000000000000e+00  0.0000000000000000e+00  0.0000000000000000e+00  0.0000000000000000e+00  0.0000000000000000e+00  0.0000000000000000e+00  0.0000000000000000e+00  0.0000000000000000e+00  0.0000000000000000e+00  0.0000000000000000e+00  0.0000000000000000e+00  0.0000000000000000e+00  0.0000000000000000e+00  0.0000000000000000e+00  0.0000000000000000e+00  0.0000000000000000e+00  0.0000000000000000e+00  0.0000000000000000e+00  0.0000000000000000e+00  0.0000000000000000e+00  0.0000000000000000e+00  0.0000000000000000e+00  0.0000000000000000e+00  0.0000000000000000e+00  0.0000000000000000e+00  0.0000000000000000e+00  0.0000000000000000e+00  0.0000000000000000e+00  0.0000000000000000e+00  0.0000000000000000e+00  0.0000000000000000e+00  0.0000000000000000e+00  0.0000000000000000e+00  0.0000000000000000e+00  0.0000000000000000e+00  0.0000000000000000e+00  0.0000000000000000e+00  0.0000000000000000e+00  0.0000000000000000e+00  0.0000000000000000e+00  0.0000000000000000e+00  0.0000000000000000e+00  0.0000000000000000e+00  0.0000000000000000e+00  0.0000000000000000e+00  0.0000000000000000e+00  0.0000000000000000e+00  0.0000000000000000e+00  0.0000000000000000e+00  0.0000000000000000e+00  0.0000000000000000e+00  0.0000000000000000e+00  0.0000000000000000e+00  0.0000000000000000e+00  0.0000000000000000e+00  0.0000000000000000e+00  0.0000000000000000e+00  0.0000000000000000e+00  0.0000000000000000e+00  0.0000000000000000e+00  0.0000000000000000e+00  0.0000000000000000e+00  0.0000000000000000e+00  0.0000000000000000e+00  0.0000000000000000e+00  0.0000000000000000e+00  0.0000000000000000e+00  0.0000000000000000e+00  0.0000000000000000e+00  0.0000000000000000e+00  0.0000000000000000e+00  0.0000000000000000e+00  0.0000000000000000e+00  0.0000000000000000e+00  0.0000000000000000e+00  0.0000000000000000e+00  0.0000000000000000e+00  0.0000000000000000e+00  0.0000000000000000e+00  0.0000000000000000e+00  0.0000000000000000e+00  0.0000000000000000e+00  0.0000000000000000e+00  0.0000000000000000e+00  0.0000000000000000e+00  0.0000000000000000e+00  0.0000000000000000e+00  0.0000000000000000e+00  0.0000000000000000e+00  0.0000000000000000e+00  0.0000000000000000e+00  0.0000000000000000e+00  0.0000000000000000e+00  0.0000000000000000e+00  0.0000000000000000e+00  0.0000000000000000e+00  0.0000000000000000e+00  -1.8623540001085952e+68  -1.0190146413120184e+63  6.2248873199759496e+63  -3.8826854438257529e+64  -1.4793845731717218e+64  -1.5223517143945865e+63  -8.0970939119928713e+60  -1.7545190619967844e+59  1.6461991711398459e+59  2.4737904726408513e+57  9.0152644152045168e+58  4.0312175416471768e+66  -3.8434132424162924e+58  -2.8648256925776945e+57  7.5556326388550755e+68  -9.0723000659638662e+68  3.2256168307324691e+57  1.5448241293279288e+57  -4.6559796106327346e+56  1.4556197364424462e+57  -3.3219626018236772e+56  6.7847784920422612e+56  -7.7584527973973540e+54  1.1277452463549626e+66  2.9748542383091283e+67  -9.8966578360436003e+67  4.9314932659697197e+57  2.4641959730720537e+55  3.5941423992319585e+56  -6.3078989316502964e+64  3.2899081032583113e+55  4.0655823835494253e+68  -3.5636510061017168e+69  -1.0665795082949999e+66  5.8306584791393585e+56  -1.1898989213205504e+54  -1.0823832788234046e+54  -9.6730033588196236e+54  5.0193725585751308e+54  -7.1331797294132311e+62  8.0077581773485500e+63  1.7603824984043783e+61  3.8039268154142280e+61  -3.0750494357461844e+68  1.1239271798058913e+54  -1.7768346961867894e+54  1.7375524380780048e+54  8.7997074296993537e+53  -3.0900573408874121e+61  2.0256509474733089e+61  4.4913269814960181e+59  -1.9246191490249938e+61  2.9631625113241353e+61  2.4567833542454756e+64  -2.2414758415564978e+55  3.0103520971652601e+68  -6.1683565297637207e+53  -3.1497917421789608e+53  -2.9187850246185347e+65  9.1348144228685644e+53  -4.5863161937409189e+53  1.1946134773245482e+59  -1.1134323281082417e+54  3.0925946200749098e+53  2.3939692487125718e+68  -1.6865965782731574e+69  -8.5710175498612263e+67  6.3931704459681679e+63  -1.8774273482400628e+67  1.1332279883003333e+67  -1.7337001460592591e+67  7.5114604648283572e+61  -4.7334464373351420e+60  2.0644501482567420e+57  3.8476956046041574e+59  -6.3950877315100209e+66  2.6429157781534555e+53  6.3395442484836492e+64  -1.4937443710243942e+67  -1.3266331580080456e+60  3.2867628361556200e+53  7.0818679524333420e+65  7.7020010824777429e+52  -2.6349001691715337e+53  4.3450193135125048e+52  -2.7189138101850085e+70  -4.4792695743567433e+53  -2.0801078545819203e+52  1.7210104152793804e+53  -1.4601101834309841e+67  -1.6305146845621623e+58  -4.9147903912083204e+53  7.7924151231927164e+59  -1.9647508083394820e+52  -7.9694120243182533e+58  -4.3785592493585666e+69  5.7693018284037386e+51  2.7869278700385642e+53  2.7325468174143235e+58  -6.5868204915311658e+57  -1.1782401731212563e+60  -9.5705394640439424e+58  -2.7771583937778862e+53  -1.7970325580496795e+64  2.5928243188933781e+62  -6.9870986083565392e+61  -8.7491222029244931e+64  -1.1943371352528571e+59  4.2285508883235988e+58  5.7727314497375887e+50  -1.8024232584041695e+64  1.4224074284291442e+53  9.1061579170539730e+51  -1.7017055006749464e+61  6.0487610282319172e+60  2.9468405413338613e+56  3.5826327784197401e+52  1.8461157504508222e+52  -5.6296612417700136e+51  -2.1273619989772535e+69  2.1390474778871885e+63  -1.1427305592735941e+56  -4.7619834250865049e+68  2.5665267647628779e+53  3.2260655828499092e+57  1.4895118777633191e+59  -1.7610792038485100e+51  -8.8937454010590017e+51  -2.1409572617131329e+56  -6.6569387660331010e+56  -3.6327854514344416e+58  -5.9708941613306813e+57  2.1575841780732201e+61  2.7480666553710852e+64  2.6560565255817739e+60  1.7509042652670350e+58  -1.5812715277032007e+53  -1.1872054400474935e+71  -7.3918107825879754e+66  1.0065174573600803e+68  1.1825334491373105e+68  3.4165659791935730e+70  1.8124066968738716e+56  -2.4246825823250898e+66  1.9697326712554230e+61  1.4399702681542700e+56  5.8315774873309357e+54  9.6866349401349933e+67  -3.8343569181718926e+70  1.6768710740103700e+59  -1.7081687137310412e+51  -9.7740104236910136e+60  -4.0261124854797757e+66  -1.4912324577236076e+56  -4.8179242593108727e+55  9.0132928863505740e+53  5.9839008166905689e+48  -6.8806971212475935e+56  -8.4954375170919380e+51  1.0831352015928521e+51  -7.3011732391741721e+50  -3.2645454756742399e+55  1.7570796455908065e+59  1.0777252675845042e+52  2.8566085256394037e+55  -4.1056254705322881e+62  1.0722413133684412e+57  6.3798643368828538e+53  -2.0843071350189253e+51  4.8513220835680519e+55  2.6492420932468074e+62  -1.9903870372242461e+68  -1.3927391948583571e+55  -1.3302508809491574e+66  -2.6642748555475774e+51  -9.3169864147483507e+63  -1.2642869337598976e+52  -1.2684907543376593e+56  1.2381678277481186e+52  1.2682623093352500e+64  -2.3685877533448673e+54  1.3386794216261438e+64  5.6671045964313757e+60  -4.1174770539163009e+70  -1.2291420573338292e+50  -1.7846802084095262e+61  7.2550285402728311e+59  6.9068016484858705e+63  -4.5854756556804407e+51  -1.2477340481666777e+54  -3.8308488543499607e+51  2.1253639952070024e+69  1.4202972248552326e+52  3.7007124337860411e+50  -1.0553614636264834e+64  1.7253854514519063e+67  9.9999071270550089e+55  -4.1917731337963644e+56  -9.1011225473413979e+62  1.9313245256933267e+58  -7.9384110787202366e+60  9.0761847604988805e+61  2.6606415026332622e+62  -9.7528538454065058e+57  5.2213025525095443e+60  -2.0036149517930458e+56  2.8869498848931054e+55  -4.1737891748756365e+68  1.4200869944278203e+52  1.9182183227453433e+56  2.7367950180861518e+56  9.2669504327824011e+68  -1.4160001563537692e+67  5.4709867927313110e+52  -1.8029940191267025e+51  5.1582430167286067e+56  2.6519064879766959e+65  -7.9027124613091915e+51  -4.0701280930522408e+59  -3.7111236256982099e+59  4.5292978156802506e+53  5.9653807376475388e+58  -2.0132147906476927e+65  6.2326168546701887e+60  2.3504769464442752e+59  5.0760987901346412e+50  -2.1391321927165161e+57  2.5330107171579213e+51  -1.9277999561239868e+59  -1.7172464033809608e+51  -1.2314975420814038e+52  2.1867033227408606e+50  4.6212569339140857e+50  8.0590109275801572e+53  -6.9846368195445501e+50  -1.1929743591740286e+63  -3.6793872783891385e+60  -1.4732273684455072e+55  -7.4669919981586288e+54  -7.5351273532073038e+67  -9.5020982802239609e+67  2.2816540954616341e+60  1.7883873152123217e+60  -2.7369311005939938e+51  3.4361166312497518e+63  -8.5961303194352511e+51  -1.7610401151228397e+50  -1.0411293584585690e+50  -1.0470671381728544e+65  4.9874237549515757e+62  -8.0136957662313621e+60  1.2042166522097297e+62  2.1888542986800573e+69  -1.5201563254152464e+69  -5.2861211252899324e+53  -1.1674007234411989e+66  -1.8102344584159274e+57  -8.8725003220287257e+62  -2.8433191313912612e+51  -4.2192049547814563e+50  -8.5505106162887063e+51  -3.5771598761080371e+58  1.8128595864406107e+53  -1.9574446300855829e+62  -4.4757003004478901e+64  -2.5792539944268706e+65  3.4434637742988818e+54  4.6136017816784088e+51  2.2975620284871628e+51  -9.3795679368467011e+59  -8.4992317693273991e+49  -5.8527886271063113e+66  5.8784739503715280e+64  -3.5397703402657625e+57  5.3010271763753516e+55  -1.0606490855103418e+57  -1.0861877570227221e+67  4.0838559777229551e+67  7.4938892806762846e+65  1.4265085268672940e+65  -2.7779535876896956e+67  4.4186648827332213e+67  -1.3620526898505070e+70  -3.7457680266325468e+58  -5.7224479873256298e+58  -1.3766384018807387e+56  1.5776823719744546e+69  -1.5107855812811551e+52  4.3395520638180277e+54  7.9090147616914952e+65  -4.5362885196088467e+69  -5.3019376556496602e+64  4.6081589148795715e+60  -5.6026735080051700e+62  5.7752239785358643e+69  1.2555257680953937e+52  -1.2529807389115478e+64  -9.2226974447714458e+50  -6.0229995966702798e+50  1.6051854561589887e+51  4.2636215690177827e+67  3.8153171979539079e+67  1.7716508847206028e+67  3.2404924555155025e+68  -4.5371141024674467e+59  3.9566922505167023e+59  4.5003824134014244e+57  9.5039567847002040e+60  3.4838879071803634e+60  3.4733982480477387e+59  9.5699697471922010e+63  -5.0689371435776195e+60  1.5302693906410711e+67  5.4251285574638696e+55  2.8065226372820379e+68  -6.9780956690640629e+67  -1.3941940092024375e+61  1.5689391283759033e+57  -1.3704838032793238e+58  -1.2339136582925031e+50  1.2745714993619322e+56  1.6828915038373540e+56  4.8556329438053753e+51  6.8633439733215647e+65  5.8079706483120289e+49  -1.4315240647116317e+51  -2.0852450544063313e+53  -1.1271427180861602e+66  -1.1712742877798785e+66  -8.3009635443267236e+68  3.2806063470351717e+48  1.9370478333510263e+57  -6.0054529671317924e+58  -8.3378529952373447e+63  -2.7135853642928170e+65  2.8740564132006947e+57  -7.7889581072002861e+63  1.0954447247165665e+67  1.5014776849274282e+70  6.7402328572300761e+57  9.1601483871609615e+54  -6.7419114091396458e+62  -3.3737432590330541e+53  1.3602845177023199e+53  -2.4407089657925381e+58  -5.7606276303094556e+49  -7.4089696953055712e+55  2.4299047492413770e+56  3.5168614711871632e+50  -2.8653644013408387e+57  3.6508006239581334e+59  5.0764450325259761e+51  4.0193713745867618e+53  1.1027421566047725e+50  3.6143054455179286e+55  3.3656135039374994e+54  -4.8233960920395147e+60  -3.1229428964996799e+69  1.7971416362094600e+52  -2.1406813647826039e+68  -1.2090562970407101e+68  1.0646353753269306e+55  -6.7173757354774370e+51  8.6184780513592850e+60  -4.4068774193763252e+53  6.0754173761830437e+68  -4.7235397925006736e+53  -5.6452511491515587e+56  -3.8495211204019013e+68  -8.9709440194131342e+54  -5.9658817993886248e+50  3.8751103053246358e+51  8.1820100068560767e+54  -4.4074105433085316e+66  2.2965518362696479e+65  8.2857242723394424e+57  2.3028404955764206e+52  -3.1223187201086770e+68  7.0603561944058877e+59  1.5749531866550265e+51  -7.1358590046847418e+62  -1.0118060782970415e+50  1.8277080603938707e+53  7.1641699276308635e+63  -2.2734816070782106e+51  3.7699694510040734e+69  -2.8133766695780124e+51  3.1824452963467040e+54  1.8098843136533344e+50  1.5057018554084168e+65  -1.3476193573896193e+61  -5.2852454038129174e+57  -2.4849925187387867e+62  -2.9144401824195222e+49  9.5087740846940206e+54  7.2957453904195313e+64  1.1380658696048645e+52  -1.0132102730998838e+62  -1.2216648952789070e+57  -8.8268035010466358e+49  2.0037832922316331e+50  6.2979189741738339e+62  1.5846421713278142e+53  -6.2581430963986236e+62  -8.1124176007780281e+56  -5.9800748342083128e+63  -3.8848232809134411e+61  1.3525467721663175e+50  1.0604614005263707e+54  1.1733897719320658e+55  1.0555354813240458e+54  -9.1706630218600152e+53  8.3019363383176713e+65  -1.0170470131077399e+67  8.1392408662101281e+69  1.0415546842047680e+66  -3.3128961333795618e+54  7.7655921247336367e+67  -2.8538049069626069e+65  3.6503063576048393e+53  1.6162942458078922e+50  1.5916015539571687e+49  -1.3565654856603376e+60  -2.1554039166419393e+59  6.5940317191875740e+56  -3.4796952212755695e+66  -1.1273849126909502e+58  -7.4325378927371072e+50  1.4020967065144722e+49  -1.5260323116579216e+51  4.2375131682871074e+59  -1.1134795192620598e+54  8.9212444270501145e+55  7.3372422587267889e+52  -2.2970950594479820e+53  3.6312238323547328e+52  8.5667822514200268e+59  -7.6721271417088969e+53  -1.0938055002213186e+64  -4.2095093131700699e+61  -2.1501105574841910e+62  -1.6338117675814048e+60  -2.1436890670856187e+62  1.7719945706207119e+65  -6.1653604383084007e+52  -9.5578713459014153e+64  -4.3434846530911337e+55  1.8123125146556662e+70  9.4094635952580103e+58  1.0970867118875931e+64  1.5139335566783757e+62  -3.1708427051200941e+68  2.9779712687501814e+54  -2.7777494602233423e+50  1.3561660156094140e+49  -1.1481231151950087e+69  1.1971868755728214e+58  1.1932027358539319e+63  -7.4605967243639298e+62  1.1155001017590159e+53  -1.5113910073934219e+59  -2.9356729634312459e+50  2.3912763318393495e+69  -9.7988746192955184e+68  -1.9079911897123855e+65  1.6247204470912605e+56  -4.4638744849445810e+54  2.7247502063363360e+54  1.2296700594808795e+58  -3.1023413583656032e+58  8.3256607579513100e+61  5.5845868265548110e+52  -1.3106441325957586e+63  5.5680715870057392e+62  1.2929527265912480e+56  1.2406157255321445e+69  1.5098604782889909e+56  -8.0788104251164675e+62  -3.6437055518291480e+58  8.5125392170423102e+59  -3.4721267600113319e+58  -2.4003035355529341e+55  -2.9649703385212825e+48  -3.2130411137254917e+53  5.1005282009055541e+49  7.5458335859637312e+52  -1.1452643384697092e+51  -4.4725968199900477e+66  2.0962989256514621e+55  5.8896818249200110e+59  -1.1172601566625427e+56  -5.2292655310523432e+65  -2.7670519997265527e+62  1.5741303838839210e+67  3.2194543507594566e+51  8.3933472442263427e+65  4.6857253963579705e+50  6.1313425198508500e+49  -2.6111823590361196e+51  -9.7406280901023953e+61  2.1995371725276119e+52  -4.4757639908163585e+51  2.8488310284094207e+62  -1.6862899951037233e+62  3.9583594127