<?xml version="1.0"?>
<VTKFile type="UnstructuredGrid"  version="0.1"  >
<UnstructuredGrid>
<Piece  NumberOfPoints="20054" NumberOfCells="39478">
<Points>
<DataArray  type="Float64"  NumberOfComponents="3"  format="ascii">1 0 0  0.9997998037428526 0.02000880895389431 0  0.9991992951284931 0.04000960653046352 0  0.9981987145960756 0.05999438456007805 0  0.9967984627705549 0.07995514128721501 0  0.9949991003022806 0.09988388457430118 0  0.9928013476425149 0.1197726351017051 0  0.9902060847549715 0.139613429562597 0  0.987214350763483 0.1593983238513969 0  0.9838273435359444 0.1791193962445356 0  0.9800464192046954 0.198768750572253 0  0.9758730916235354 0.2183385193801655 0  0.9713090317615876 0.237820867079336 0  0.9663560670342555 0.2572079930835849 0  0.9610161805715396 0.2764921349327862 0  0.9552915104240066 0.2956655714008991 0  0.9491843487067304 0.3147206255874884 0  0.9426971406815462 0.3336496679914983 0  0.9358324837779861 0.3524451195660473 0  0.9285931265532873 0.3710994547530225 0  0.9209819675918909 0.3896052044962556 0  0.9130020543448703 0.4079549592320781 0  0.9046565819097542 0.4261413718560547 0  0.8959488917512338 0.4441571606647087 0  0.8868824703632656 0.4619951122710622 0  0.8774609478731046 0.4796480844928215 0  0.8676880965878291 0.4971090092120542 0  0.8575678294839372 0.5143708952052096 0  0.8471041986406199 0.5314268309423539 0  0.8363013936173391 0.5482699873544935 0  0.8251637397763597 0.5648936205678837 0  0.8136956965509062 0.5812910746042258 0  0.8019018556596399 0.5974557840456699 0  0.7897869392681683 0.6133812766635599 0  0.777355798098326 0.6290611760098652 0  0.7646134094859813 0.6444892039702628 0  0.7515648753881492 0.6596591832778468 0  0.7382154203402046 0.6745650399864606 0  0.7245703893640189 0.6892008059026586 0  0.7106352458278521 0.7035606209753273 0  0.6964155692588616 0.7176387356420051 0  0.6819170531091018 0.7314295131309636 0  0.6671455024759069 0.7449274317181303 0  0.6521068317775753 0.7581270869379442 0  0.6368070623852795 0.7710231937472638 0  0.6212523202121545 0.7836105886414595 0  0.6054488332605282 0.795884231721841 0  0.5894029291282759 0.8078392087135958 0  0.5731210324752972 0.8194707329334278 0  0.5566096624511305 0.8307741472061095 0  0.5398754300847343 0.8417449257291802 0  0.5229250356374803 0.8523786758850435 0  0.5057652659204196 0.8626711399997378 0  0.4884029915768944 0.8726181970476778 0  0.4708451643315825 0.8822158643016828 0  0.45309881420708 0.8914602989276292 0  0.4351710467091336 0.9003477995230937 0  0.4170690399816468 0.9088748075993677 0  0.398800041932607 0.9170379090062476 0  0.3803713673320772 0.9248338352990368 0  0.3617903948834157 0.9322594650472057 0  0.3430645642688987 0.9393118250841893 0  0.3242013731709288 0.9459880916978206 0  0.3052083742700172 0.952285591760924 0  0.2860931722207478 0.9582018038016155 0  0.2668634206069304 0.963734359012881 0  0.2475268188771628 0.9688810422010291 0  0.2280911092620296 0.9736397926726377 0  0.2085640736741707 0.9780087050596407 0  0.1889535305924618 0.9819860300822225 0  0.1692673319315541 0.9855701752492174 0  0.1495133598980264 0.9887597054957302 0  0.1296995238344084 0.9915533437577263 0  0.1098337570523395 0.9939499714833577 0  0.08992401365612977 0.9959486290808237 0  0.06997826535799723 0.9975485163025836 0  0.05000449828625179 0.9987489925657699 0  0.03001070978771124 0.9995495772086734 0  0.01000490522562346 0.9999499496831961 0  -0.01000490522562333 0.9999499496831961 0  -0.03001070978771133 0.9995495772086734 0  -0.05000449828625144 0.9987489925657699 0  -0.06997826535799688 0.9975485163025836 0  -0.08992401365612987 0.9959486290808237 0  -0.1098337570523394 0.9939499714833577 0  -0.1296995238344082 0.9915533437577263 0  -0.1495133598980262 0.9887597054957303 0  -0.1692673319315537 0.9855701752492174 0  -0.1889535305924614 0.9819860300822226 0  -0.2085640736741705 0.9780087050596407 0  -0.2280911092620295 0.9736397926726377 0  -0.2475268188771627 0.9688810422010291 0  -0.2668634206069302 0.9637343590128811 0  -0.2860931722207475 0.9582018038016156 0  -0.3052083742700173 0.9522855917609239 0  -0.3242013731709289 0.9459880916978205 0  -0.3430645642688986 0.9393118250841894 0  -0.3617903948834154 0.9322594650472058 0  -0.380371367332077 0.924833835299037 0  -0.3988000419326071 0.9170379090062476 0  -0.4170690399816465 0.9088748075993678 0  -0.4351710467091335 0.9003477995230939 0  -0.4530988142070799 0.8914602989276292 0  -0.4708451643315824 0.8822158643016829 0  -0.4884029915768945 0.8726181970476778 0  -0.5057652659204197 0.8626711399997378 0  -0.5229250356374801 0.8523786758850437 0  -0.5398754300847342 0.8417449257291804 0  -0.5566096624511303 0.8307741472061098 0  -0.5731210324752971 0.8194707329334279 0  -0.589402929128276 0.8078392087135957 0  -0.6054488332605281 0.7958842317218411 0  -0.6212523202121542 0.7836105886414597 0  -0.6368070623852793 0.7710231937472639 0  -0.652106831777575 0.7581270869379444 0  -0.6671455024759069 0.7449274317181304 0  -0.6819170531091018 0.7314295131309636 0  -0.6964155692588616 0.7176387356420052 0  -0.7106352458278521 0.7035606209753273 0  -0.7245703893640187 0.6892008059026588 0  -0.7382154203402043 0.6745650399864608 0  -0.751564875388149 0.6596591832778469 0  -0.7646134094859813 0.6444892039702628 0  -0.7773557980983258 0.6290611760098654 0  -0.7897869392681683 0.6133812766635599 0  -0.8019018556596398 0.59745578404567 0  -0.8136956965509062 0.5812910746042258 0  -0.8251637397763595 0.5648936205678839 0  -0.836301393617339 0.5482699873544935 0  -0.8471041986406197 0.5314268309423542 0  -0.8575678294839372 0.5143708952052097 0  -0.8676880965878292 0.497109009212054 0  -0.8774609478731045 0.4796480844928216 0  -0.8868824703632656 0.4619951122710621 0  -0.8959488917512338 0.4441571606647088 0  -0.904656581909754 0.426141371856055 0  -0.9130020543448703 0.4079549592320783 0  -0.920981967591891 0.3896052044962555 0  -0.9285931265532872 0.3710994547530226 0  -0.9358324837779861 0.3524451195660473 0  -0.9426971406815462 0.3336496679914984 0  -0.9491843487067303 0.3147206255874888 0  -0.9552915104240065 0.2956655714008993 0  -0.9610161805715396 0.2764921349327862 0  -0.9663560670342555 0.2572079930835851 0  -0.9713090317615876 0.2378208670793361 0  -0.9758730916235353 0.2183385193801658 0  -0.9800464192046954 0.198768750572253 0  -0.9838273435359444 0.1791193962445354 0  -0.987214350763483 0.159398323851397 0  -0.9902060847549714 0.1396134295625972 0  -0.9928013476425149 0.1197726351017052 0  -0.9949991003022804 0.09988388457430147 0  -0.9967984627705549 0.07995514128721509 0  -0.9981987145960756 0.05999438456007793 0  -0.9991992951284931 0.04000960653046362 0  -0.9997998037428526 0.02000880895389464 0  -1 1.224646799147353e-16 0  -0.9997998037428526 -0.0200088089538944 0  -0.9991992951284931 -0.04000960653046338 0  -0.9981987145960756 -0.05999438456007812 0  -0.9967984627705549 -0.07995514128721484 0  -0.9949991003022806 -0.09988388457430078 0  -0.9928013476425149 -0.1197726351017049 0  -0.9902060847549715 -0.1396134295625965 0  -0.9872143507634831 -0.1593983238513963 0  -0.9838273435359444 -0.1791193962445356 0  -0.9800464192046953 -0.1987687505722532 0  -0.9758730916235354 -0.2183385193801655 0  -0.9713090317615876 -0.2378208670793363 0  -0.9663560670342556 -0.2572079930835848 0  -0.9610161805715396 -0.276492134932786 0  -0.9552915104240066 -0.2956655714008991 0  -0.9491843487067305 -0.3147206255874881 0  -0.9426971406815464 -0.3336496679914978 0  -0.9358324837779862 -0.3524451195660471 0  -0.9285931265532875 -0.371099454753022 0  -0.9209819675918909 -0.3896052044962557 0  -0.9130020543448704 -0.407954959232078 0  -0.9046565819097541 -0.4261413718560548 0  -0.8959488917512338 -0.4441571606647086 0  -0.8868824703632655 -0.4619951122710623 0  -0.8774609478731046 -0.4796480844928214 0  -0.8676880965878293 -0.4971090092120538 0  -0.8575678294839373 -0.5143708952052095 0  -0.84710419864062 -0.5314268309423537 0  -0.8363013936173395 -0.5482699873544929 0  -0.8251637397763596 -0.5648936205678838 0  -0.8136956965509061 -0.5812910746042259 0  -0.8019018556596399 -0.5974557840456699 0  -0.7897869392681682 -0.61338127666356 0  -0.777355798098326 -0.6290611760098652 0  -0.7646134094859816 -0.6444892039702625 0  -0.7515648753881492 -0.6596591832778468 0  -0.7382154203402048 -0.6745650399864603 0  -0.7245703893640192 -0.6892008059026583 0  -0.7106352458278522 -0.7035606209753272 0  -0.6964155692588621 -0.7176387356420046 0  -0.6819170531091017 -0.7314295131309637 0  -0.667145502475907 -0.7449274317181303 0  -0.6521068317775756 -0.758127086937944 0  -0.6368070623852792 -0.7710231937472641 0  -0.6212523202121544 -0.7836105886414596 0  -0.6054488332605283 -0.795884231721841 0  -0.5894029291282762 -0.8078392087135956 0  -0.5731210324752977 -0.8194707329334274 0  -0.5566096624511304 -0.8307741472061095 0  -0.5398754300847344 -0.8417449257291802 0  -0.5229250356374798 -0.8523786758850437 0  -0.5057652659204195 -0.8626711399997379 0  -0.4884029915768943 -0.872618197047678 0  -0.4708451643315825 -0.8822158643016828 0  -0.4530988142070805 -0.8914602989276289 0  -0.4351710467091333 -0.900347799523094 0  -0.4170690399816467 -0.9088748075993677 0  -0.3988000419326073 -0.9170379090062475 0  -0.3803713673320777 -0.9248338352990366 0  -0.3617903948834162 -0.9322594650472055 0  -0.3430645642688988 -0.9393118250841893 0  -0.3242013731709283 -0.9459880916978207 0  -0.3052083742700169 -0.9522855917609241 0  -0.2860931722207477 -0.9582018038016155 0  -0.2668634206069305 -0.963734359012881 0  -0.2475268188771631 -0.968881042201029 0  -0.2280911092620301 -0.9736397926726376 0  -0.2085640736741706 -0.9780087050596407 0  -0.1889535305924619 -0.9819860300822225 0  -0.1692673319315544 -0.9855701752492173 0  -0.1495133598980269 -0.9887597054957302 0  -0.1296995238344092 -0.9915533437577262 0  -0.1098337570523396 -0.9939499714833577 0  -0.08992401365612945 -0.9959486290808237 0  -0.06997826535799691 -0.9975485163025836 0  -0.05000449828625168 -0.9987489925657699 0  -0.030010709787
[...]
<PointData  Scalars="Displacement"> 
<DataArray  type="Float64"  Name="Displacement"  format="ascii">0.0000000000000000e+00  0.0000000000000000e+00  0.0000000000000000e+00  0.0000000000000000e+00  0.0000000000000000e+00  0.0000000000000000e+00  0.0000000000000000e+00  0.0000000000000000e+00  0.0000000000000000e+00  0.0000000000000000e+00  0.0000000000000000e+00  0.0000000000000000e+00  0.0000000000000000e+00  0.0000000000000000e+00  0.0000000000000000e+00  0.0000000000000000e+00  0.0000000000000000e+00  0.0000000000000000e+00  0.0000000000000000e+00  0.0000000000000000e+00  0.0000000000000000e+00  0.0000000000000000e+00  0.0000000000000000e+00  0.0000000000000000e+00  0.0000000000000000e+00  0.0000000000000000e+00  0.0000000000000000e+00  0.0000000000000000e+00  0.0000000000000000e+00  0.0000000000000000e+00  0.0000000000000000e+00  0.0000000000000000e+00  0.0000000000000000e+00  0.0000000000000000e+00  0.0000000000000000e+00  0.0000000000000000e+00  0.0000000000000000e+00  0.0000000000000000e+00  0.0000000000000000e+00  0.0000000000000000e+00  0.0000000000000000e+00  0.0000000000000000e+00  0.0000000000000000e+00  0.0000000000000000e+00  0.0000000000000000e+00  0.0000000000000000e+00  0.0000000000000000e+00  0.0000000000000000e+00  0.0000000000000000e+00  0.0000000000000000e+00  0.0000000000000000e+00  0.0000000000000000e+00  0.0000000000000000e+00  0.0000000000000000e+00  0.0000000000000000e+00  0.0000000000000000e+00  0.0000000000000000e+00  0.0000000000000000e+00  0.0000000000000000e+00  0.0000000000000000e+00  0.0000000000000000e+00  0.0000000000000000e+00  0.0000000000000000e+00  0.0000000000000000e+00  0.0000000000000000e+00  0.0000000000000000e+00  0.0000000000000000e+00  0.0000000000000000e+00  0.0000000000000000e+00  0.0000000000000000e+00  0.0000000000000000e+00  0.0000000000000000e+00  0.0000000000000000e+00  0.0000000000000000e+00  0.0000000000000000e+00  0.0000000000000000e+00  0.0000000000000000e+00  0.0000000000000000e+00  0.0000000000000000e+00  0.0000000000000000e+00  0.0000000000000000e+00  0.0000000000000000e+00  0.0000000000000000e+00  0.0000000000000000e+00  0.0000000000000000e+00  0.0000000000000000e+00  0.0000000000000000e+00  0.0000000000000000e+00  0.0000000000000000e+00  0.0000000000000000e+00  0.0000000000000000e+00  0.0000000000000000e+00  0.0000000000000000e+00  0.0000000000000000e+00  0.0000000000000000e+00  0.0000000000000000e+00  0.0000000000000000e+00  0.0000000000000000e+00  0.0000000000000000e+00  0.0000000000000000e+00  0.0000000000000000e+00  0.0000000000000000e+00  0.0000000000000000e+00  0.0000000000000000e+00  0.0000000000000000e+00  0.0000000000000000e+00  0.0000000000000000e+00  0.0000000000000000e+00  0.0000000000000000e+00  0.0000000000000000e+00  0.0000000000000000e+00  0.0000000000000000e+00  0.0000000000000000e+00  0.0000000000000000e+00  0.0000000000000000e+00  0.0000000000000000e+00  0.0000000000000000e+00  0.0000000000000000e+00  0.0000000000000000e+00  0.0000000000000000e+00  0.0000000000000000e+00  0.0000000000000000e+00  0.0000000000000000e+00  0.0000000000000000e+00  0.0000000000000000e+00  0.0000000000000000e+00  0.0000000000000000e+00  0.0000000000000000e+00  0.0000000000000000e+00  0.0000000000000000e+00  0.0000000000000000e+00  0.0000000000000000e+00  0.0000000000000000e+00  0.0000000000000000e+00  0.0000000000000000e+00  0.0000000000000000e+00  0.0000000000000000e+00  0.0000000000000000e+00  0.0000000000000000e+00  0.0000000000000000e+00  0.0000000000000000e+00  0.0000000000000000e+00  0.0000000000000000e+00  0.0000000000000000e+00  0.0000000000000000e+00  0.0000000000000000e+00  0.0000000000000000e+00  0.0000000000000000e+00  0.0000000000000000e+00  0.0000000000000000e+00  0.0000000000000000e+00  0.0000000000000000e+00  0.0000000000000000e+00  0.0000000000000000e+00  0.0000000000000000e+00  0.0000000000000000e+00  0.0000000000000000e+00  0.0000000000000000e+00  0.0000000000000000e+00  0.0000000000000000e+00  0.0000000000000000e+00  0.0000000000000000e+00  0.0000000000000000e+00  0.0000000000000000e+00  0.0000000000000000e+00  0.0000000000000000e+00  0.0000000000000000e+00  0.0000000000000000e+00  0.0000000000000000e+00  0.0000000000000000e+00  0.0000000000000000e+00  0.0000000000000000e+00  0.0000000000000000e+00  0.0000000000000000e+00  0.0000000000000000e+00  0.0000000000000000e+00  0.0000000000000000e+00  0.0000000000000000e+00  0.0000000000000000e+00  0.0000000000000000e+00  0.0000000000000000e+00  0.0000000000000000e+00  0.0000000000000000e+00  0.0000000000000000e+00  0.0000000000000000e+00  0.0000000000000000e+00  0.0000000000000000e+00  0.0000000000000000e+00  0.0000000000000000e+00  0.0000000000000000e+00  0.0000000000000000e+00  0.0000000000000000e+00  0.0000000000000000e+00  0.0000000000000000e+00  0.0000000000000000e+00  0.0000000000000000e+00  0.0000000000000000e+00  0.0000000000000000e+00  0.0000000000000000e+00  0.0000000000000000e+00  0.0000000000000000e+00  0.0000000000000000e+00  0.0000000000000000e+00  0.0000000000000000e+00  0.0000000000000000e+00  0.0000000000000000e+00  0.0000000000000000e+00  0.0000000000000000e+00  0.0000000000000000e+00  0.0000000000000000e+00  0.0000000000000000e+00  0.0000000000000000e+00  0.0000000000000000e+00  0.0000000000000000e+00  0.0000000000000000e+00  0.0000000000000000e+00  0.0000000000000000e+00  0.0000000000000000e+00  0.0000000000000000e+00  0.0000000000000000e+00  0.0000000000000000e+00  0.0000000000000000e+00  0.0000000000000000e+00  0.0000000000000000e+00  0.0000000000000000e+00  0.0000000000000000e+00  0.0000000000000000e+00  0.0000000000000000e+00  0.0000000000000000e+00  0.0000000000000000e+00  0.0000000000000000e+00  0.0000000000000000e+00  0.0000000000000000e+00  0.0000000000000000e+00  0.0000000000000000e+00  0.0000000000000000e+00  0.0000000000000000e+00  0.0000000000000000e+00  0.0000000000000000e+00  0.0000000000000000e+00  0.0000000000000000e+00  0.0000000000000000e+00  0.0000000000000000e+00  0.0000000000000000e+00  0.0000000000000000e+00  0.0000000000000000e+00  0.0000000000000000e+00  0.0000000000000000e+00  0.0000000000000000e+00  0.0000000000000000e+00  0.0000000000000000e+00  0.0000000000000000e+00  0.0000000000000000e+00  0.0000000000000000e+00  0.0000000000000000e+00  0.0000000000000000e+00  0.0000000000000000e+00  0.0000000000000000e+00  0.0000000000000000e+00  0.0000000000000000e+00  0.0000000000000000e+00  0.0000000000000000e+00  0.0000000000000000e+00  0.0000000000000000e+00  0.0000000000000000e+00  0.0000000000000000e+00  0.0000000000000000e+00  0.0000000000000000e+00  0.0000000000000000e+00  0.0000000000000000e+00  0.0000000000000000e+00  0.0000000000000000e+00  0.0000000000000000e+00  0.0000000000000000e+00  0.0000000000000000e+00  0.0000000000000000e+00  0.0000000000000000e+00  0.0000000000000000e+00  0.0000000000000000e+00  0.0000000000000000e+00  0.0000000000000000e+00  0.0000000000000000e+00  0.0000000000000000e+00  0.0000000000000000e+00  0.0000000000000000e+00  0.0000000000000000e+00  0.0000000000000000e+00  0.0000000000000000e+00  0.0000000000000000e+00  0.0000000000000000e+00  0.0000000000000000e+00  0.0000000000000000e+00  0.0000000000000000e+00  0.0000000000000000e+00  0.0000000000000000e+00  0.0000000000000000e+00  0.0000000000000000e+00  0.0000000000000000e+00  0.0000000000000000e+00  0.0000000000000000e+00  0.0000000000000000e+00  0.0000000000000000e+00  0.0000000000000000e+00  0.0000000000000000e+00  0.0000000000000000e+00  0.0000000000000000e+00  0.0000000000000000e+00  0.0000000000000000e+00  0.0000000000000000e+00  0.0000000000000000e+00  0.0000000000000000e+00  0.0000000000000000e+00  0.0000000000000000e+00  0.0000000000000000e+00  -5.2601783000153180e-03  -1.8596386138141657e-01  -1.8548071164629756e-01  -1.8570153086471067e-01  -1.8583090516375919e-01  -1.8559140793759810e-01  -1.5321040574955075e-01  -6.4565252090163630e-02  -4.4926727727126761e-02  -7.8982060026384412e-03  -7.6117845027581232e-03  -5.8602484022098316e-03  3.6893635401992191e-02  3.6817369570937723e-02  -5.6701815395128544e-03  -5.7199708210645198e-03  6.6985228981317174e-02  6.4692653597036007e-02  6.8295528472558611e-02  6.9178107134162600e-02  7.2745561622669305e-02  7.3155721207654498e-02  7.2267086444145978e-02  -9.9074475576875529e-02  -9.9209610823914052e-02  -5.6675662597012672e-03  6.1256086493622075e-02  7.6082034688930503e-02  7.6918164907746001e-02  -1.7901614821253958e-01  7.6888722479875729e-02  -5.6146918455525687e-03  -5.6918569540944158e-03  -1.8420496242065143e-01  7.3536343758076106e-02  6.2552558572750092e-02  6.0339085585134559e-02  5.8881490191471202e-02  5.8707408457999738e-02  -1.6789331013942410e-01  -1.6250170819381987e-01  -1.5565839585641372e-01  -1.5287468263598758e-01  -5.2699263005745369e-03  5.3978643369279405e-02  5.1331165874883594e-02  4.8025459781010152e-02  4.8087394693906008e-02  -1.2562454214349258e-01  -1.3375778951028833e-01  1.1560666990736004e-02  -1.6920437139973971e-01  -1.4653628831633350e-01  -1.7442252930826382e-01  3.6615585791413378e-02  -5.6775388727644885e-03  4.9678834916617502e-02  3.6799612249074291e-02  -1.0699098596675217e-02  3.4266745676686097e-02  3.5419261208652769e-02  -1.3113870918259029e-02  3.3359904870706808e-02  3.7584781499572166e-02  -1.0853696492533430e-02  -5.3428388782096325e-03  -8.6506393992925965e-02  -1.7493341266325654e-01  -7.8889957955056489e-02  -5.4662898491744235e-03  -9.6306914206120958e-03  -1.2932897770872667e-01  -7.3750817178905609e-02  -9.0254333266444137e-02  -9.1023268343429831e-02  -3.3107753795640550e-02  3.1914769704941927e-02  -1.2531476454025858e-01  -3.0581901759168965e-02  -2.5295898929436747e-02  2.7279747418405453e-02  -1.0630629997624069e-01  2.5967198313029911e-02  2.6794787434290698e-02  2.4315961520319986e-02  -5.2763284961106017e-03  2.5389594204044311e-02  2.4025574330904784e-02  2.3894772940147205e-02  -7.4328498822450378e-02  7.0547795972311705e-03  2.2347578516080324e-02  -7.6753279007800837e-02  2.2093332994980404e-02  6.3072211432737045e-03  -5.1093775639443435e-03  2.5328760408519797e-02  2.1642476510721022e-02  1.7764022294649930e-02  4.0631241567955174e-02  -3.5568623503779331e-02  1.7685282393548780e-02  2.1802112881855882e-02  -1.6358623473591533e-01  -1.7591239253330268e-01  -1.7580192795213281e-01  -1.4852010565822879e-01  4.0580405309448460e-02  2.6186451557757368e-02  1.9505848653581341e-02  -1.3945508970180695e-01  1.9421343534052216e-02  2.0002376491411795e-02  -1.2044619750849779e-01  -1.0762304601682855e-01  4.5216211157256526e-02  1.8705901561406595e-02  2.0633385142290510e-02  2.0485908453487734e-02  -5.4365203167885305e-03  -1.5901733152787614e-01  7.6679216010231421e-02  -5.2042846268509947e-03  3.5328372573980645e-02  6.1479037638323408e-02  -6.0679286755831964e-03  2.0202333369322353e-02  1.8486027319039647e-02  6.6214793118655246e-02  6.4523804398004550e-02  -1.0179479804376635e-02  5.9886845138549000e-02  -7.3236107305494361e-02  -1.7621793573545938e-01  -1.2644611762182015e-01  4.0205157726023337e-02  1.9712074668545368e-02  -5.7734527545672872e-03  -6.9986591093279732e-02  -7.9007062571861339e-03  -5.5091312263958322e-03  -5.6760802846952787e-03  7.6383783979476899e-02  -1.3846659430702138e-01  -1.1911661213858810e-01  7.6446439583386927e-02  7.6584000883024625e-02  -5.9887628462491158e-03  -5.4742808336672964e-03  -5.0334580538445119e-02  1.6398302341321815e-02  -1.1372985173535620e-01  -7.4908277832497580e-02  7.5557511881217246e-02  7.5644311486558813e-02  3.7372360981351736e-02  1.5490940653594161e-02  7.6928611778738165e-02  1.6677129958228468e-02  1.5735286818243155e-02  1.5855327887610800e-02  7.7088211169360141e-02  -2.5601444636177428e-02  1.6542732028320475e-02  6.6594928284214608e-02  -1.8587487626204363e-01  7.5226919291571034e-02  2.0966125652050423e-02  1.5004925224294068e-02  7.6529199766908529e-02  -1.3581472631425062e-01  -5.2578086571837363e-03  7.6793939992658530e-02  -8.9490594163110337e-02  1.4615733300631277e-02  -1.7151656748316771e-01  1.4266395773193082e-02  7.1570989678401323e-02  1.4639058350090623e-02  -1.8281026342977866e-01  7.4982836575963607e-02  -1.8121682446513290e-01  -1.2692962913613393e-01  -5.8505300093848389e-03  1.6470523112247958e-02  -1.6972959342243502e-01  -4.5992292183091456e-02  -1.8346541685860748e-01  1.4875627172001650e-02  5.6181848641112697e-02  1.5231720757712791e-02  -5.3702031667579022e-03  1.3418584701456432e-02  1.4735642457989308e-02  -1.8067597349706147e-01  -1.6139288874444279e-02  7.4223408266660407e-02  7.2911713028002353e-02  -1.8569723147925296e-01  -2.4383400124736668e-02  -1.0998328496313969e-01  -1.3894274959774755e-01  -1.8524980392809942e-01  -3.9381713956679339e-02  -1.0913182383959587e-01  7.2881852682518761e-02  7.1565204645533287e-02  -5.8038584297330472e-03  2.5687900356697855e-02  7.1714219054828304e-02  6.8634970890177269e-02  -5.2501947490988504e-03  -5.3743822057573300e-03  1.3380502825794421e-02  1.3337549784730656e-02  7.7038088884793021e-02  -1.8060129358921265e-01  1.4509281492970033e-02  -4.8781528112472682e-02  -1.3799126075487960e-02  4.0221415815954578e-02  1.3029261947218630e-02  -1.2578968904017787e-01  -6.6877240733437676e-02  -1.6468133986895298e-02  1.4494248145623535e-02  4.0610198707359817e-02  1.2052528943362725e-02  -1.4608243065970040e-02  1.3171666824228781e-02  1.8520854099476531e-02  1.4820954763409611e-02  1.2025908378218854e-02  5.0241196708687270e-02  1.2753338711040329e-02  -1.7046008858719436e-01  -1.1424610001917047e-01  6.2448422250014450e-02  6.4527494011157552e-02  -5.5221830222316375e-03  -7.3367057719436789e-03  -4.2815129133723526e-02  -8.2257773829234354e-02  1.8570586949218249e-02  -1.8619222841961791e-01  1.1892224298436531e-02  1.2339691053387407e-02  1.1796941330142937e-02  -6.4915358475191309e-02  -1.8147560048989059e-01  -1.6126865309957500e-01  -1.6727562701335955e-01  -5.4558979764024627e-03  -5.4001055824321039e-03  5.6555861386338932e-02  -1.0319713322088531e-01  7.6915596209617035e-02  -1.7262285183338438e-01  1.7082751603839375e-02  1.1541786304372524e-02  1.7285432807373786e-02  3.7749942700047487e-02  6.4564773713661205e-02  -1.3020651215647994e-01  -1.7954224242380998e-01  -1.1487734815998989e-01  5.0952477628965917e-02  2.0047162597303127e-02  1.7186615770954428e-02  -1.3042286658322433e-01  1.0985163512500428e-02  -7.1092871050487325e-02  -1.7605614559459171e-01  7.3311301851725574e-02  7.2267097124048635e-02  3.4398473764580009e-02  -2.4726776572596310e-02  -1.2015918084757504e-02  -8.0602585012721939e-02  -4.0532048257056690e-02  -8.0465056602721068e-03  -5.5916262013977185e-03  -5.4601868245345133e-03  -1.9585553042368944e-02  3.2841883776249053e-02  6.7833822709820510e-02  -7.6183863488646355e-03  1.2085847955626481e-02  6.5675680932941335e-02  -1.2636582786814821e-01  -5.4765870013275646e-03  -1.7479235987007796e-01  -3.9633901992241351e-02  -1.5211841893379097e-01  -5.4006790956121131e-03  1.0615862137767008e-02  -1.6684561777093659e-01  1.1197119125727772e-02  1.0868760021381570e-02  1.1755449061552504e-02  -5.0270724539357046e-03  -5.3687819172496985e-03  -1.2074851059690693e-02  -5.7036695269335885e-03  1.4386053950116095e-02  -6.9493370712008271e-02  5.8617329778807771e-02  -1.1945388922955408e-01  -1.8244376163716415e-02  -4.4624751803159404e-02  -1.7028004219842652e-01  -2.4364862115594899e-02  -8.1226578655176976e-03  7.4446971430186359e-02  -5.4763744583388643e-03  -5.3736675055338461e-03  -1.3594075184460080e-01  5.8230212724405248e-02  2.6716335098999268e-02  1.0501836987522937e-02  7.4674745945702004e-02  7.6986692721519520e-02  1.0009626590835716e-02  -3.9091743776376350e-02  9.9412904566171054e-03  9.9314843792616507e-03  4.9536243854151667e-02  -1.2844090239914085e-01  -7.0346800559462450e-02  -5.6714047407750755e-03  1.0022381287132114e-02  5.7269953931602224e-02  -2.4534385171847681e-02  -1.8422024690783484e-01  -2.8059543799698976e-02  6.9030029566275422e-02  -1.8608440188833031e-01  -3.7965807819051539e-02  -5.6881519599250273e-03  1.3161255435950328e-02  7.0607002592663684e-02  -1.8560782585998276e-01  4.2696908042985260e-02  3.6141094426184149e-02  1.2506550636513786e-02  1.0213595977658483e-02  6.9041674712291765e-02  7.6575945775492968e-02  9.8534400937890319e-03  1.7582683274024912e-02  1.1067912053447019e-02  9.5277968729495597e-03  4.1297996667833355e-02  9.4200678439006601e-03  5.8344917903061934e-02  4.2081104342140435e-02  -1.6021881054586568e-01  -5.5439542503106180e-03  3.8998962018868419e-02  -5.4547329463797353e-03  -5.5948684474728437e-03  7.4768754435528648e-02  9.7734043540812464e-03  -1.0784468336522184e-01  3.8273614596623054e-02  -1.4524385953180117e-02  3.8386809777859354e-02  4.1254402401017264e-02  -5.5794060349425413e-03  6.6163883841991789e-02  9.1539416437638778e-03  1.4960042650999482e-02  6.7527219816012410e-02  -6.9552095500324249e-02  -1.6171338320969350e-01  4.2672653591794743e-02  1.4444129443811319e-02  -4.8638062348318684e-03  -1.0100805637580297e-01  9.3321938206574889e-03  -1.7922754992309350e-01  9.1236905433424772e-03  5.8356281874674079e-02  -1.8607834394673695e-01  1.0841453152577991e-02  -5.5867746092707607e-03  8.5807795081106319e-03  6.7984034116133019e-02  9.0872392106354002e-03  -1.3221167541628867e-01  -1.3245322780144445e-01  1.3437283247918444e-02  -1.3674023610003699e-01  9.3337110192072675e-03  5.8759932084449608e-02  -1.3079317158644546e-01  1.4700320672630371e-02  -8.5817588983946591e-02  7.1931264867150124e-02  8.7875320542117243e-03  8.9282030358894208e-03  -1.6709403789206487e-01  2.9117116721746356e-02  -1.7474657043834910e-01  6.9189965928859495e-02  -1.7134168080360224e-01  -1.2653962108723169e-01  8.6704089536676285e-03  5.1984636812235890e-02  6.5840892799856443e-02  3.1748713507684934e-02  3.2242991749646864e-02  -1.6209576446875121e-01  -7.4632647614637865e-02  -5.4339981648226640e-03  -8.4523516484888497e-02  6.2740693472678702e-02  -5.4945335682997755e-03  -1.8479070444370430e-01  5.5366624535798152e-02  8.3334195987006532e-03  1.5381169152369834e-02  -7.2865785697381447e-02  -1.2901791188600274e-02  6.6826053175006533e-02  -9.2275778245319504e-02  6.0058705077972535e-02  8.4172008493956004e-03  8.6658539994285914e-03  1.2196358552079746e-02  -1.4924720561246390e-02  4.0936539116596289e-02  7.4015594477670602e-02  3.2776581961738348e-02  4.9059859468853745e-02  4.7722120176990471e-02  -7.3031889601472888e-02  6.3704435730117942e-02  -1.8569056448105492e-01  -1.0884726510176203e-01  -1.5473934251252022e-01  -1.0206148938133573e-01  -1.8152746909108228e-01  -1.3934450454192301e-01  3.0829896711311811e-02  -1.5068038241109316e-01  7.6712607592336682e-02  -5.1051178002937837e-03  -4.3628744559275928e-02  -1.8593773392257165e-01  -1.7411446970235106e-01  -1.1679202720174453e-01  2.8587082345706647e-02  8.4051929831988198e-03  8.8277589344026887e-03  -5.6160830383041481e-03  1.8718650442631615e-02  -1.8384916106385546e-01  -1.8589175854442971e-01  2.0313198611866312e-02  -1.1058060366642881e-01  8.3028418848149019e-03  -5.6911570203868420e-03  -1.3059665748504508e-02  -1.8355953729140678e-01  7.4817641754775899e-02  4.8134557397434982e-02  2.9585886974523596e-02  6.3378972662955405e-02  5.7115003449948229e-02  -1.3312746532920675e-01  2.5044892758751078e-02  -1.8232800593177159e-01  -1.8361440211438887e-01  6.5196136518021863e-02  -5.7105436304247248e-03  5.4158463690269547e-02  -1.8475097266263607e-01  3.5747685417572353e-02  -6.0733833228956022e-02  -1.9222792353383287e-02  7.5908926769095705e-02  7.4498466299403399e-03  4.2879219617615719e-02  8.1107001222209697e-03  2.4698787853520986e-02  1.6277605499541794e-02  -4.3475718287527172e-02  7.4005008206074474e-02  -1.2062697004555857e-01  7.6106638420485068e-02  -1.4819834523519715e-01  -1.3692544485421190e-01  -1.7710013697070620e-02  1.6002726664853657e-02  -1.5179849381936142e-01  1.3286842956255538e-02  7.5238831889358421e-03  8.9835334909038108e-03  -1.7671299865313736e-01  2.3807260659809214e-02  8.2161217993392682e-03  -1.7352141962102108e-01  -1.6608080507078654e-01  -4.8913039234652303e-