<?xml version="1.0"?>
<VTKFile type="UnstructuredGrid"  version="0.1"  >
<UnstructuredGrid>
<Piece  NumberOfPoints="20054" NumberOfCells="39478">
<Points>
<DataArray  type="Float64"  NumberOfComponents="3"  format="ascii">1 0 0  0.9997998037428526 0.02000880895389431 0  0.9991992951284931 0.04000960653046352 0  0.9981987145960756 0.05999438456007805 0  0.9967984627705549 0.07995514128721501 0  0.9949991003022806 0.09988388457430118 0  0.9928013476425149 0.1197726351017051 0  0.9902060847549715 0.139613429562597 0  0.987214350763483 0.1593983238513969 0  0.9838273435359444 0.1791193962445356 0  0.9800464192046954 0.198768750572253 0  0.9758730916235354 0.2183385193801655 0  0.9713090317615876 0.237820867079336 0  0.9663560670342555 0.2572079930835849 0  0.9610161805715396 0.2764921349327862 0  0.9552915104240066 0.2956655714008991 0  0.9491843487067304 0.3147206255874884 0  0.9426971406815462 0.3336496679914983 0  0.9358324837779861 0.3524451195660473 0  0.9285931265532873 0.3710994547530225 0  0.9209819675918909 0.3896052044962556 0  0.9130020543448703 0.4079549592320781 0  0.9046565819097542 0.4261413718560547 0  0.8959488917512338 0.4441571606647087 0  0.8868824703632656 0.4619951122710622 0  0.8774609478731046 0.4796480844928215 0  0.8676880965878291 0.4971090092120542 0  0.8575678294839372 0.5143708952052096 0  0.8471041986406199 0.5314268309423539 0  0.8363013936173391 0.5482699873544935 0  0.8251637397763597 0.5648936205678837 0  0.8136956965509062 0.5812910746042258 0  0.8019018556596399 0.5974557840456699 0  0.7897869392681683 0.6133812766635599 0  0.777355798098326 0.6290611760098652 0  0.7646134094859813 0.6444892039702628 0  0.7515648753881492 0.6596591832778468 0  0.7382154203402046 0.6745650399864606 0  0.7245703893640189 0.6892008059026586 0  0.7106352458278521 0.7035606209753273 0  0.6964155692588616 0.7176387356420051 0  0.6819170531091018 0.7314295131309636 0  0.6671455024759069 0.7449274317181303 0  0.6521068317775753 0.7581270869379442 0  0.6368070623852795 0.7710231937472638 0  0.6212523202121545 0.7836105886414595 0  0.6054488332605282 0.795884231721841 0  0.5894029291282759 0.8078392087135958 0  0.5731210324752972 0.8194707329334278 0  0.5566096624511305 0.8307741472061095 0  0.5398754300847343 0.8417449257291802 0  0.5229250356374803 0.8523786758850435 0  0.5057652659204196 0.8626711399997378 0  0.4884029915768944 0.8726181970476778 0  0.4708451643315825 0.8822158643016828 0  0.45309881420708 0.8914602989276292 0  0.4351710467091336 0.9003477995230937 0  0.4170690399816468 0.9088748075993677 0  0.398800041932607 0.9170379090062476 0  0.3803713673320772 0.9248338352990368 0  0.3617903948834157 0.9322594650472057 0  0.3430645642688987 0.9393118250841893 0  0.3242013731709288 0.9459880916978206 0  0.3052083742700172 0.952285591760924 0  0.2860931722207478 0.9582018038016155 0  0.2668634206069304 0.963734359012881 0  0.2475268188771628 0.9688810422010291 0  0.2280911092620296 0.9736397926726377 0  0.2085640736741707 0.9780087050596407 0  0.1889535305924618 0.9819860300822225 0  0.1692673319315541 0.9855701752492174 0  0.1495133598980264 0.9887597054957302 0  0.1296995238344084 0.9915533437577263 0  0.1098337570523395 0.9939499714833577 0  0.08992401365612977 0.9959486290808237 0  0.06997826535799723 0.9975485163025836 0  0.05000449828625179 0.9987489925657699 0  0.03001070978771124 0.9995495772086734 0  0.01000490522562346 0.9999499496831961 0  -0.01000490522562333 0.9999499496831961 0  -0.03001070978771133 0.9995495772086734 0  -0.05000449828625144 0.9987489925657699 0  -0.06997826535799688 0.9975485163025836 0  -0.08992401365612987 0.9959486290808237 0  -0.1098337570523394 0.9939499714833577 0  -0.1296995238344082 0.9915533437577263 0  -0.1495133598980262 0.9887597054957303 0  -0.1692673319315537 0.9855701752492174 0  -0.1889535305924614 0.9819860300822226 0  -0.2085640736741705 0.9780087050596407 0  -0.2280911092620295 0.9736397926726377 0  -0.2475268188771627 0.9688810422010291 0  -0.2668634206069302 0.9637343590128811 0  -0.2860931722207475 0.9582018038016156 0  -0.3052083742700173 0.9522855917609239 0  -0.3242013731709289 0.9459880916978205 0  -0.3430645642688986 0.9393118250841894 0  -0.3617903948834154 0.9322594650472058 0  -0.380371367332077 0.924833835299037 0  -0.3988000419326071 0.9170379090062476 0  -0.4170690399816465 0.9088748075993678 0  -0.4351710467091335 0.9003477995230939 0  -0.4530988142070799 0.8914602989276292 0  -0.4708451643315824 0.8822158643016829 0  -0.4884029915768945 0.8726181970476778 0  -0.5057652659204197 0.8626711399997378 0  -0.5229250356374801 0.8523786758850437 0  -0.5398754300847342 0.8417449257291804 0  -0.5566096624511303 0.8307741472061098 0  -0.5731210324752971 0.8194707329334279 0  -0.589402929128276 0.8078392087135957 0  -0.6054488332605281 0.7958842317218411 0  -0.6212523202121542 0.7836105886414597 0  -0.6368070623852793 0.7710231937472639 0  -0.652106831777575 0.7581270869379444 0  -0.6671455024759069 0.7449274317181304 0  -0.6819170531091018 0.7314295131309636 0  -0.6964155692588616 0.7176387356420052 0  -0.7106352458278521 0.7035606209753273 0  -0.7245703893640187 0.6892008059026588 0  -0.7382154203402043 0.6745650399864608 0  -0.751564875388149 0.6596591832778469 0  -0.7646134094859813 0.6444892039702628 0  -0.7773557980983258 0.6290611760098654 0  -0.7897869392681683 0.6133812766635599 0  -0.8019018556596398 0.59745578404567 0  -0.8136956965509062 0.5812910746042258 0  -0.8251637397763595 0.5648936205678839 0  -0.836301393617339 0.5482699873544935 0  -0.8471041986406197 0.5314268309423542 0  -0.8575678294839372 0.5143708952052097 0  -0.8676880965878292 0.497109009212054 0  -0.8774609478731045 0.4796480844928216 0  -0.8868824703632656 0.4619951122710621 0  -0.8959488917512338 0.4441571606647088 0  -0.904656581909754 0.426141371856055 0  -0.9130020543448703 0.4079549592320783 0  -0.920981967591891 0.3896052044962555 0  -0.9285931265532872 0.3710994547530226 0  -0.9358324837779861 0.3524451195660473 0  -0.9426971406815462 0.3336496679914984 0  -0.9491843487067303 0.3147206255874888 0  -0.9552915104240065 0.2956655714008993 0  -0.9610161805715396 0.2764921349327862 0  -0.9663560670342555 0.2572079930835851 0  -0.9713090317615876 0.2378208670793361 0  -0.9758730916235353 0.2183385193801658 0  -0.9800464192046954 0.198768750572253 0  -0.9838273435359444 0.1791193962445354 0  -0.987214350763483 0.159398323851397 0  -0.9902060847549714 0.1396134295625972 0  -0.9928013476425149 0.1197726351017052 0  -0.9949991003022804 0.09988388457430147 0  -0.9967984627705549 0.07995514128721509 0  -0.9981987145960756 0.05999438456007793 0  -0.9991992951284931 0.04000960653046362 0  -0.9997998037428526 0.02000880895389464 0  -1 1.224646799147353e-16 0  -0.9997998037428526 -0.0200088089538944 0  -0.9991992951284931 -0.04000960653046338 0  -0.9981987145960756 -0.05999438456007812 0  -0.9967984627705549 -0.07995514128721484 0  -0.9949991003022806 -0.09988388457430078 0  -0.9928013476425149 -0.1197726351017049 0  -0.9902060847549715 -0.1396134295625965 0  -0.9872143507634831 -0.1593983238513963 0  -0.9838273435359444 -0.1791193962445356 0  -0.9800464192046953 -0.1987687505722532 0  -0.9758730916235354 -0.2183385193801655 0  -0.9713090317615876 -0.2378208670793363 0  -0.9663560670342556 -0.2572079930835848 0  -0.9610161805715396 -0.276492134932786 0  -0.9552915104240066 -0.2956655714008991 0  -0.9491843487067305 -0.3147206255874881 0  -0.9426971406815464 -0.3336496679914978 0  -0.9358324837779862 -0.3524451195660471 0  -0.9285931265532875 -0.371099454753022 0  -0.9209819675918909 -0.3896052044962557 0  -0.9130020543448704 -0.407954959232078 0  -0.9046565819097541 -0.4261413718560548 0  -0.8959488917512338 -0.4441571606647086 0  -0.8868824703632655 -0.4619951122710623 0  -0.8774609478731046 -0.4796480844928214 0  -0.8676880965878293 -0.4971090092120538 0  -0.8575678294839373 -0.5143708952052095 0  -0.84710419864062 -0.5314268309423537 0  -0.8363013936173395 -0.5482699873544929 0  -0.8251637397763596 -0.5648936205678838 0  -0.8136956965509061 -0.5812910746042259 0  -0.8019018556596399 -0.5974557840456699 0  -0.7897869392681682 -0.61338127666356 0  -0.777355798098326 -0.6290611760098652 0  -0.7646134094859816 -0.6444892039702625 0  -0.7515648753881492 -0.6596591832778468 0  -0.7382154203402048 -0.6745650399864603 0  -0.7245703893640192 -0.6892008059026583 0  -0.7106352458278522 -0.7035606209753272 0  -0.6964155692588621 -0.7176387356420046 0  -0.6819170531091017 -0.7314295131309637 0  -0.667145502475907 -0.7449274317181303 0  -0.6521068317775756 -0.758127086937944 0  -0.6368070623852792 -0.7710231937472641 0  -0.6212523202121544 -0.7836105886414596 0  -0.6054488332605283 -0.795884231721841 0  -0.5894029291282762 -0.8078392087135956 0  -0.5731210324752977 -0.8194707329334274 0  -0.5566096624511304 -0.8307741472061095 0  -0.5398754300847344 -0.8417449257291802 0  -0.5229250356374798 -0.8523786758850437 0  -0.5057652659204195 -0.8626711399997379 0  -0.4884029915768943 -0.872618197047678 0  -0.4708451643315825 -0.8822158643016828 0  -0.4530988142070805 -0.8914602989276289 0  -0.4351710467091333 -0.900347799523094 0  -0.4170690399816467 -0.9088748075993677 0  -0.3988000419326073 -0.9170379090062475 0  -0.3803713673320777 -0.9248338352990366 0  -0.3617903948834162 -0.9322594650472055 0  -0.3430645642688988 -0.9393118250841893 0  -0.3242013731709283 -0.9459880916978207 0  -0.3052083742700169 -0.9522855917609241 0  -0.2860931722207477 -0.9582018038016155 0  -0.2668634206069305 -0.963734359012881 0  -0.2475268188771631 -0.968881042201029 0  -0.2280911092620301 -0.9736397926726376 0  -0.2085640736741706 -0.9780087050596407 0  -0.1889535305924619 -0.9819860300822225 0  -0.1692673319315544 -0.9855701752492173 0  -0.1495133598980269 -0.9887597054957302 0  -0.1296995238344092 -0.9915533437577262 0  -0.1098337570523396 -0.9939499714833577 0  -0.08992401365612945 -0.9959486290808237 0  -0.06997826535799691 -0.9975485163025836 0  -0.05000449828625168 -0.9987489925657699 0  -0.0300107
[...]
<PointData  Scalars="Displacement"> 
<DataArray  type="Float64"  Name="Displacement"  format="ascii">0.0000000000000000e+00  0.0000000000000000e+00  0.0000000000000000e+00  0.0000000000000000e+00  0.0000000000000000e+00  0.0000000000000000e+00  0.0000000000000000e+00  0.0000000000000000e+00  0.0000000000000000e+00  0.0000000000000000e+00  0.0000000000000000e+00  0.0000000000000000e+00  0.0000000000000000e+00  0.0000000000000000e+00  0.0000000000000000e+00  0.0000000000000000e+00  0.0000000000000000e+00  0.0000000000000000e+00  0.0000000000000000e+00  0.0000000000000000e+00  0.0000000000000000e+00  0.0000000000000000e+00  0.0000000000000000e+00  0.0000000000000000e+00  0.0000000000000000e+00  0.0000000000000000e+00  0.0000000000000000e+00  0.0000000000000000e+00  0.0000000000000000e+00  0.0000000000000000e+00  0.0000000000000000e+00  0.0000000000000000e+00  0.0000000000000000e+00  0.0000000000000000e+00  0.0000000000000000e+00  0.0000000000000000e+00  0.0000000000000000e+00  0.0000000000000000e+00  0.0000000000000000e+00  0.0000000000000000e+00  0.0000000000000000e+00  0.0000000000000000e+00  0.0000000000000000e+00  0.0000000000000000e+00  0.0000000000000000e+00  0.0000000000000000e+00  0.0000000000000000e+00  0.0000000000000000e+00  0.0000000000000000e+00  0.0000000000000000e+00  0.0000000000000000e+00  0.0000000000000000e+00  0.0000000000000000e+00  0.0000000000000000e+00  0.0000000000000000e+00  0.0000000000000000e+00  0.0000000000000000e+00  0.0000000000000000e+00  0.0000000000000000e+00  0.0000000000000000e+00  0.0000000000000000e+00  0.0000000000000000e+00  0.0000000000000000e+00  0.0000000000000000e+00  0.0000000000000000e+00  0.0000000000000000e+00  0.0000000000000000e+00  0.0000000000000000e+00  0.0000000000000000e+00  0.0000000000000000e+00  0.0000000000000000e+00  0.0000000000000000e+00  0.0000000000000000e+00  0.0000000000000000e+00  0.0000000000000000e+00  0.0000000000000000e+00  0.0000000000000000e+00  0.0000000000000000e+00  0.0000000000000000e+00  0.0000000000000000e+00  0.0000000000000000e+00  0.0000000000000000e+00  0.0000000000000000e+00  0.0000000000000000e+00  0.0000000000000000e+00  0.0000000000000000e+00  0.0000000000000000e+00  0.0000000000000000e+00  0.0000000000000000e+00  0.0000000000000000e+00  0.0000000000000000e+00  0.0000000000000000e+00  0.0000000000000000e+00  0.0000000000000000e+00  0.0000000000000000e+00  0.0000000000000000e+00  0.0000000000000000e+00  0.0000000000000000e+00  0.0000000000000000e+00  0.0000000000000000e+00  0.0000000000000000e+00  0.0000000000000000e+00  0.0000000000000000e+00  0.0000000000000000e+00  0.0000000000000000e+00  0.0000000000000000e+00  0.0000000000000000e+00  0.0000000000000000e+00  0.0000000000000000e+00  0.0000000000000000e+00  0.0000000000000000e+00  0.0000000000000000e+00  0.0000000000000000e+00  0.0000000000000000e+00  0.0000000000000000e+00  0.0000000000000000e+00  0.0000000000000000e+00  0.0000000000000000e+00  0.0000000000000000e+00  0.0000000000000000e+00  0.0000000000000000e+00  0.0000000000000000e+00  0.0000000000000000e+00  0.0000000000000000e+00  0.0000000000000000e+00  0.0000000000000000e+00  0.0000000000000000e+00  0.0000000000000000e+00  0.0000000000000000e+00  0.0000000000000000e+00  0.0000000000000000e+00  0.0000000000000000e+00  0.0000000000000000e+00  0.0000000000000000e+00  0.0000000000000000e+00  0.0000000000000000e+00  0.0000000000000000e+00  0.0000000000000000e+00  0.0000000000000000e+00  0.0000000000000000e+00  0.0000000000000000e+00  0.0000000000000000e+00  0.0000000000000000e+00  0.0000000000000000e+00  0.0000000000000000e+00  0.0000000000000000e+00  0.0000000000000000e+00  0.0000000000000000e+00  0.0000000000000000e+00  0.0000000000000000e+00  0.0000000000000000e+00  0.0000000000000000e+00  0.0000000000000000e+00  0.0000000000000000e+00  0.0000000000000000e+00  0.0000000000000000e+00  0.0000000000000000e+00  0.0000000000000000e+00  0.0000000000000000e+00  0.0000000000000000e+00  0.0000000000000000e+00  0.0000000000000000e+00  0.0000000000000000e+00  0.0000000000000000e+00  0.0000000000000000e+00  0.0000000000000000e+00  0.0000000000000000e+00  0.0000000000000000e+00  0.0000000000000000e+00  0.0000000000000000e+00  0.0000000000000000e+00  0.0000000000000000e+00  0.0000000000000000e+00  0.0000000000000000e+00  0.0000000000000000e+00  0.0000000000000000e+00  0.0000000000000000e+00  0.0000000000000000e+00  0.0000000000000000e+00  0.0000000000000000e+00  0.0000000000000000e+00  0.0000000000000000e+00  0.0000000000000000e+00  0.0000000000000000e+00  0.0000000000000000e+00  0.0000000000000000e+00  0.0000000000000000e+00  0.0000000000000000e+00  0.0000000000000000e+00  0.0000000000000000e+00  0.0000000000000000e+00  0.0000000000000000e+00  0.0000000000000000e+00  0.0000000000000000e+00  0.0000000000000000e+00  0.0000000000000000e+00  0.0000000000000000e+00  0.0000000000000000e+00  0.0000000000000000e+00  0.0000000000000000e+00  0.0000000000000000e+00  0.0000000000000000e+00  0.0000000000000000e+00  0.0000000000000000e+00  0.0000000000000000e+00  0.0000000000000000e+00  0.0000000000000000e+00  0.0000000000000000e+00  0.0000000000000000e+00  0.0000000000000000e+00  0.0000000000000000e+00  0.0000000000000000e+00  0.0000000000000000e+00  0.0000000000000000e+00  0.0000000000000000e+00  0.0000000000000000e+00  0.0000000000000000e+00  0.0000000000000000e+00  0.0000000000000000e+00  0.0000000000000000e+00  0.0000000000000000e+00  0.0000000000000000e+00  0.0000000000000000e+00  0.0000000000000000e+00  0.0000000000000000e+00  0.0000000000000000e+00  0.0000000000000000e+00  0.0000000000000000e+00  0.0000000000000000e+00  0.0000000000000000e+00  0.0000000000000000e+00  0.0000000000000000e+00  0.0000000000000000e+00  0.0000000000000000e+00  0.0000000000000000e+00  0.0000000000000000e+00  0.0000000000000000e+00  0.0000000000000000e+00  0.0000000000000000e+00  0.0000000000000000e+00  0.0000000000000000e+00  0.0000000000000000e+00  0.0000000000000000e+00  0.0000000000000000e+00  0.0000000000000000e+00  0.0000000000000000e+00  0.0000000000000000e+00  0.0000000000000000e+00  0.0000000000000000e+00  0.0000000000000000e+00  0.0000000000000000e+00  0.0000000000000000e+00  0.0000000000000000e+00  0.0000000000000000e+00  0.0000000000000000e+00  0.0000000000000000e+00  0.0000000000000000e+00  0.0000000000000000e+00  0.0000000000000000e+00  0.0000000000000000e+00  0.0000000000000000e+00  0.0000000000000000e+00  0.0000000000000000e+00  0.0000000000000000e+00  0.0000000000000000e+00  0.0000000000000000e+00  0.0000000000000000e+00  0.0000000000000000e+00  0.0000000000000000e+00  0.0000000000000000e+00  0.0000000000000000e+00  0.0000000000000000e+00  0.0000000000000000e+00  0.0000000000000000e+00  0.0000000000000000e+00  0.0000000000000000e+00  0.0000000000000000e+00  0.0000000000000000e+00  0.0000000000000000e+00  0.0000000000000000e+00  0.0000000000000000e+00  0.0000000000000000e+00  0.0000000000000000e+00  0.0000000000000000e+00  0.0000000000000000e+00  0.0000000000000000e+00  0.0000000000000000e+00  0.0000000000000000e+00  0.0000000000000000e+00  0.0000000000000000e+00  0.0000000000000000e+00  0.0000000000000000e+00  0.0000000000000000e+00  0.0000000000000000e+00  0.0000000000000000e+00  0.0000000000000000e+00  0.0000000000000000e+00  0.0000000000000000e+00  0.0000000000000000e+00  0.0000000000000000e+00  0.0000000000000000e+00  0.0000000000000000e+00  0.0000000000000000e+00  0.0000000000000000e+00  0.0000000000000000e+00  0.0000000000000000e+00  0.0000000000000000e+00  0.0000000000000000e+00  0.0000000000000000e+00  0.0000000000000000e+00  0.0000000000000000e+00  0.0000000000000000e+00  0.0000000000000000e+00  0.0000000000000000e+00  5.3168850315537641e-02  1.4731354143492435e-03  1.6614637466308107e-03  2.1973418886221839e-03  1.5363384281836467e-03  1.7248731851813000e-03  6.6671915582436608e-04  8.1912911708644388e-04  6.0659311465064650e-04  5.5763944238800261e-04  3.2866370715186911e-04  -1.1842447661358270e-01  6.2765765145211989e-04  8.2572467995054824e-04  -1.4358525520997434e-01  -1.6286139404665784e-01  6.8636291146696412e-04  4.7896945482375948e-04  3.2876171154990348e-04  3.0071609360158311e-04  4.1010051332215745e-04  2.6353089821778459e-04  4.6537897128738799e-04  5.7587785424655247e-03  6.1630246078357249e-03  -2.3378796942355201e-01  3.8891213229817902e-04  8.7263744649417209e-05  5.5832522928483475e-04  1.7584608057830768e-04  5.5903659833595864e-04  -1.8626630494208496e-01  -2.7308012079447852e-01  1.5132989497568807e-03  4.3951752593030831e-04  4.5813667655033105e-04  5.3734534204319265e-04  4.0106720004729428e-04  3.2004584029363505e-04  2.4712475805451541e-04  1.6383249336184697e-04  4.2357672177145204e-05  5.4441750144045443e-04  -2.7605754899866486e-01  5.3365378225938415e-04  3.3974859939911380e-04  4.0012440812876361e-04  3.0138996464444407e-04  1.1788345415548694e-03  1.6849544684873657e-03  6.5042957878904014e-04  1.9542129420882238e-04  1.3230010577110120e-03  -1.0541680035297560e-03  2.0645110751709578e-05  -2.6905389244017813e-01  1.2182073398244088e-04  9.4548887373537366e-05  -7.1251521975678786e-02  3.0377657344177357e-04  7.0914877512035548e-05  6.2328952206783651e-04  1.9133490096091715e-04  6.3530238925473708e-05  -7.0695372399775427e-02  -2.3837787318203255e-01  4.1439139257443336e-03  -7.2196219053247146e-04  2.3735570065426229e-03  -2.4261649542620847e-01  -7.4024779102680807e-02  1.5513160431446667e-03  2.8656867500472129e-04  4.2363819093980422e-04  2.8761456484253017e-04  -2.4339854795300174e-02  -1.1223731714139507e-04  5.7238833756914501e-03  -2.6438061725287253e-02  6.3628788807754946e-04  3.8670446259439137e-04  6.6312832359418919e-03  2.6583909657387409e-04  2.7961542762501091e-04  4.8920473123749929e-04  -2.1953827856590669e-01  6.8316605965846038e-04  3.1176118914206543e-04  2.7242222049587983e-04  1.0937914161482396e-03  3.6220354262146899e-04  2.8010975039152817e-04  3.7530117431941343e-04  2.4715071534861635e-04  3.9915028896038960e-04  -2.7264334322408795e-01  6.8658849372904660e-04  1.0700443188413751e-04  6.0205111728639515e-04  7.2103783067586078e-04  9.9556924000842586e-04  5.9781964274016586e-04  1.6841714470466256e-04  -5.5972609200902635e-04  1.8421390142748484e-04  5.9181936114558180e-04  1.4311793411735298e-03  7.3583282463891549e-04  6.7090340772268172e-04  -1.0798373337257516e-04  2.9481727602294608e-03  -6.2991869056606606e-05  1.2577057175681557e-04  8.5212572190220199e-04  5.0358192571560532e-04  9.1138378276109855e-04  1.3087764476539610e-04  1.1880583883628132e-04  3.1634499264617349e-05  -2.4141847077638182e-01  2.8241433883992360e-04  2.0604597946242083e-04  -1.5588327275880232e-01  1.7985883155456772e-04  4.6713500766501113e-04  1.9626304083173433e-04  1.8892947438758879e-04  3.2514653374801899e-04  1.9972026330893010e-04  2.7609026636226741e-04  6.4550081220011524e-04  2.0452936696091828e-04  7.1750994346748314e-04  -6.8642031641687000e-04  1.1498228417971886e-03  6.6409866146868539e-04  1.0707601374196800e-04  -1.7639006075661393e-01  -6.3503549080342302e-04  -9.0552986731164173e-02  -1.3562672528774924e-01  -1.7808553591172616e-01  3.8708652851659710e-04  3.2818942987828149e-03  9.0245569004778891e-04  2.0144638599151716e-04  2.8388484325050976e-04  -1.2938870569451655e-01  -2.7508196544160285e-01  7.7051143320562760e-04  3.4077032091396256e-04  8.0570234082943601e-04  1.6901841600384035e-03  7.0372579765996422e-04  4.7720330068653886e-04  2.2632378908519238e-04  6.6965349989731485e-05  3.7369638065087705e-04  3.4296376928341598e-05  -8.6850775822974952e-05  2.7795903258816479e-04  2.0687598565879555e-04  6.4274621527821542e-04  2.1519360811545117e-04  1.3609775000588098e-04  1.9186537016303350e-03  7.1609051190095648e-04  2.1538263849735589e-04  -1.5705449387741287e-04  4.3334674651764347e-04  1.5124977338205840e-03  -1.0944888771699995e-01  7.2914528821223668e-04  5.5181200364173635e-03  2.4781866523550467e-04  -1.0947337241008672e-03  1.5320023632308443e-04  6.7572013067866528e-05  7.9246043062769801e-05  5.7064858356069184e-04  2.4101448211070943e-04  1.1144374517582127e-03  1.0985106368474533e-03  -2.4779372091343993e-01  3.6044452102067432e-04  4.5016651890150006e-05  6.9743270812967523e-04  7.2726763247653716e-04  1.9861126348948838e-04  3.8129345454682878e-04  2.0385464397461290e-04  -2.7547399949573825e-01  1.9460134285717671e-04  3.0392314918660361e-04  1.1422827413314046e-03  -5.1411455753450748e-02  5.1383971669151569e-04  3.6061196172562025e-04  1.8209375407843534e-03  8.6792580511193932e-04  6.5039222195046806e-04  1.2620514081469116e-03  1.7199526931202707e-03  1.1121671199747262e-03  8.7133918712188976e-04  1.4060136978512273e-04  2.4683813844959411e-04  -2.1523594935435167e-01  3.6645213555097742e-04  2.5118490702816655e-04  2.7475121764272838e-04  -2.7675175255932838e-01  -9.0842834033877787e-02  2.3130305764905909e-04  9.8638690998698039e-05  5.8324469370823822e-04  -3.1407422114823109e-04  1.9710194158302814e-04  7.9174712448664016e-04  9.4550976544302632e-04  1.4412386150281753e-04  1.0749829588626348e-04  5.4241695867949342e-03  2.0618610468475047e-04  6.9408768982250437e-04  3.4265333317477835e-04  8.9844515697755963e-04  2.8429136664835539e-04  7.5836147900715278e-04  2.4294436959372155e-04  -7.3644040445469688e-05  6.2426714813398917e-05  1.9657530982000699e-04  6.6025488245311577e-04  2.6228819538956077e-04  -1.0297392985214311e-03  7.4900247057038455e-04  5.2913608814356052e-04  2.0123288233736853e-04  -1.9579423195828891e-01  -9.6281114360783848e-02  1.0763377686692731e-03  -8.4125747708441100e-05  5.3559257954965175e-05  2.0463829945589602e-03  9.2743782096832622e-06  2.0009233591047321e-04  6.5411637573400800e-05  -2.3454304698755186e-03  2.9936894021170370e-05  3.5365840992528287e-04  3.7981000291515202e-04  -1.5556375577970852e-01  -9.3548190359975428e-02  4.0737217439242046e-04  5.8981883695142035e-03  4.2512075113025426e-04  3.4830569643396484e-04  4.1546911598767825e-04  -2.6865136293667498e-05  1.9653050262736173e-04  5.6953418902816249e-04  7.1027849570039670e-04  1.4350576084213534e-03  -4.9424803473076598e-04  6.1915712865414467e-03  4.3041671723796746e-04  5.9317575620343221e-05  -1.7504770833610772e-05  1.3342270158693138e-03  2.0441792293236173e-04  2.9073163839540118e-05  -2.5890799123717503e-04  3.9335647301346242e-04  -5.9785991127710249e-05  8.5593553726392448e-04  -3.4058980680873305e-02  -6.6317676419942753e-02  3.1431674398889496e-03  -1.6953230234784018e-02  -8.7559593615738965e-02  -2.3885085647933624e-01  -2.5978142318894598e-01  6.2373826292745366e-04  6.7529849994408836e-04  2.4469035909857357e-04  -9.1759673657360416e-02  1.6707840863453883e-04  3.8181772310344594e-04  5.5359091718400668e-03  -2.5432138049005815e-01  -1.1232185524082687e-03  9.6639177445167373e-04  6.8350424475862356e-04  -2.7347515417804641e-01  -5.1284172166721125e-05  3.5831874463236547e-04  2.5522815772537524e-05  -1.5426694551617977e-04  1.7251903788111417e-04  -2.7222754406687233e-01  -6.1620681061941969e-02  -6.3792327870039356e-02  -2.1393829469348108e-01  4.6558396425790165e-04  7.7925345899409863e-04  3.3117333107196551e-04  7.5749334734821565e-04  5.2145560252844390e-04  1.2634982206139989e-03  1.8896826529660876e-04  6.4298703764096893e-04  -8.9827875373894236e-02  4.2704415077804338e-04  -2.5990327500798932e-01  -2.3229210869677433e-01  1.3005581285314403e-03  4.8917140276951397e-04  5.9569880705960109e-04  2.8707005523938322e-04  2.5090355338672703e-04  3.6448705943430501e-04  8.0555624939231471e-05  -1.8747127224583143e-02  1.0769781623126589e-04  6.8910911923212197e-06  1.2863584719815084e-04  5.6271568974709954e-03  -2.9238892883534802e-04  -1.4262907551302256e-01  1.0796627539383262e-04  3.7723356627204340e-04  7.2977345083644735e-04  1.6108202583090517e-03  -3.0947129741926288e-02  1.7242262206202137e-04  1.7744539611844982e-03  -1.9750783109704684e-02  -2.3517863596187594e-01  6.5477365969349491e-04  4.5567544885078619e-04  2.1086253999698210e-03  -2.2500700926940590e-04  3.8792153590132646e-04  2.7835658052845441e-04  4.2483257192573031e-05  2.5441904793817907e-04  2.1209608701364447e-04  7.2190088919180109e-05  2.3952627655261414e-05  2.8532599021929557e-04  2.0933046756945779e-04  3.6748467728800550e-05  -1.6919357837549265e-04  6.0084130253944279e-04  2.8615256196745745e-04  5.4422077517212461e-04  -2.6285744667168646e-02  3.5486000888196984e-04  -2.7008556816685270e-01  -2.7496722179940825e-01  3.9658535742676025e-04  1.2320972664395393e-04  8.0714398734461001e-04  1.3780551370387372e-04  -5.6528146794593399e-02  -1.8676490722392409e-04  5.3931510977980543e-04  -1.7052456497037274e-01  4.1000824364798369e-04  2.2161413660785325e-04  1.9589095354290379e-04  1.8917996282161360e-04  -3.7961080862502426e-04  -1.4517417449450744e-04  1.1363860048815642e-04  3.4022683973145767e-05  -2.5369302772202246e-01  2.0929721180282894e-04  -3.2937673106902342e-05  8.3311457831006556e-04  -5.4381240233320040e-06  7.0298571390677153e-04  1.8271470305589183e-03  1.5827984994684958e-04  -2.4071365687564775e-01  2.2135754847444982e-04  2.2102445910321796e-04  8.9314825677585188e-05  4.3137459070211985e-03  1.6155474676533201e-03  2.1505906238210586e-04  1.1908178768682879e-03  2.5896523344041711e-04  4.5142015853924950e-04  4.6773231960790650e-03  3.6330386214912465e-04  4.4314052547542735e-04  1.4434321195209922e-04  4.0539263915685041e-05  1.3233939009305791e-05  4.6721626652196824e-04  3.1433825564860634e-04  -4.5836950642100786e-04  3.6186422831944998e-04  1.0504320305670923e-04  1.2300706006433241e-03  5.9787864257005828e-05  5.0858215543843289e-04  4.0453765360288704e-04  2.5762958313807927e-04  2.3797360169017221e-04  -1.7483351634513814e-04  1.7191867800401221e-03  -2.6133872043096462e-01  3.7133867387535097e-03  5.8014947911932328e-04  -1.4636363967052898e-01  1.4962132075324575e-03  3.0987672119640625e-04  3.1460999015301783e-04  -6.2968759531491870e-05  1.9028071144809865e-04  8.5053122048119533e-04  5.2406020524637189e-04  4.9774254910023826e-03  4.0806001149262458e-04  1.0103248958876062e-04  2.3121090015586234e-04  9.5156008462748631e-05  1.0402280922832271e-03  3.3035586406308931e-04  6.5061536704625179e-04  2.6442437031311939e-04  2.9763152961702626e-04  4.6643740582079152e-04  6.2659766370196221e-04  4.2307148570390414e-04  1.6979742102037777e-03  9.1576461448100190e-04  2.5104463415892287e-04  3.6813802936078161e-04  9.8664228374555746e-04  3.6239062709821227e-03  2.8982100731805144e-04  1.4683239738631803e-03  3.6061614367619092e-04  -1.9803475479783517e-01  9.4131587256684622e-04  2.0479001993860260e-03  2.8821680224261527e-04  5.9911169599619878e-03  2.7535550292242893e-04  1.3096573815115305e-04  1.7475992782467335e-04  -1.6831508222753708e-01  4.8059379610830973e-04  1.4520579995248944e-03  1.6298144859089648e-03  3.2797095415732419e-04  1.1273491408450404e-03  1.4009777231343366e-04  -2.4679662864617616e-01  -6.0978286296928176e-02  8.1088471919574061e-04  2.0348666092567753e-04  4.8015881797669338e-04  1.1220468122911310e-04  4.0300817194487625e-04  6.4076202439151443e-04  1.2797183521826823e-03  2.3476424325847336e-04  6.1064635073226914e-04  1.5563008793706039e-03  4.7573702154694316e-04  -2.4975967440642610e-01  5.8646438482967851e-04  2.0522149706369546e-03  1.0388099138844225e-03  6.5521379277740761e-04  2.9674954928714595e-04  4.4628571101294772e-04  1.8014719209814419e-04  2.4117938677621593e-04  2.5795732884358456e-05  3.9612359598931862e-04  7.6739660076413272e-05  -1.5108267998884361e-02  3.0952177095179388e-04  9.8079533323585473e-04  4.2770085853864105e-04  2.1939073473317863e-03  1.2199490667104415e-03  -4.7445076437012332e-02  -3.2146978282373797e-05  1.0629045558515084e-03  9.5031545486138076e-05  1.6475854286237743e-04  1.5848325272179627e-04  8.4096329266416939e-04  1.8582303251035915e-04  2.4630242156664807e-04  5.5761266796873423e-04  1.4131392013901707e-04  5.0571766241149798e-04  3.5348359505246708e-04  6.0535793386877002e-04  2.6664640728968591e-04  8.8370778317308955e-05  6.9009625668442422e-04  9.61096354452