<?xml version="1.0"?>
<VTKFile type="UnstructuredGrid"  version="0.1"  >
<UnstructuredGrid>
<Piece  NumberOfPoints="20054" NumberOfCells="39478">
<Points>
<DataArray  type="Float64"  NumberOfComponents="3"  format="ascii">1 0 0  0.9997998037428526 0.02000880895389431 0  0.9991992951284931 0.04000960653046352 0  0.9981987145960756 0.05999438456007805 0  0.9967984627705549 0.07995514128721501 0  0.9949991003022806 0.09988388457430118 0  0.9928013476425149 0.1197726351017051 0  0.9902060847549715 0.139613429562597 0  0.987214350763483 0.1593983238513969 0  0.9838273435359444 0.1791193962445356 0  0.9800464192046954 0.198768750572253 0  0.9758730916235354 0.2183385193801655 0  0.9713090317615876 0.237820867079336 0  0.9663560670342555 0.2572079930835849 0  0.9610161805715396 0.2764921349327862 0  0.9552915104240066 0.2956655714008991 0  0.9491843487067304 0.3147206255874884 0  0.9426971406815462 0.3336496679914983 0  0.9358324837779861 0.3524451195660473 0  0.9285931265532873 0.3710994547530225 0  0.9209819675918909 0.3896052044962556 0  0.9130020543448703 0.4079549592320781 0  0.9046565819097542 0.4261413718560547 0  0.8959488917512338 0.4441571606647087 0  0.8868824703632656 0.4619951122710622 0  0.8774609478731046 0.4796480844928215 0  0.8676880965878291 0.4971090092120542 0  0.8575678294839372 0.5143708952052096 0  0.8471041986406199 0.5314268309423539 0  0.8363013936173391 0.5482699873544935 0  0.8251637397763597 0.5648936205678837 0  0.8136956965509062 0.5812910746042258 0  0.8019018556596399 0.5974557840456699 0  0.7897869392681683 0.6133812766635599 0  0.777355798098326 0.6290611760098652 0  0.7646134094859813 0.6444892039702628 0  0.7515648753881492 0.6596591832778468 0  0.7382154203402046 0.6745650399864606 0  0.7245703893640189 0.6892008059026586 0  0.7106352458278521 0.7035606209753273 0  0.6964155692588616 0.7176387356420051 0  0.6819170531091018 0.7314295131309636 0  0.6671455024759069 0.7449274317181303 0  0.6521068317775753 0.7581270869379442 0  0.6368070623852795 0.7710231937472638 0  0.6212523202121545 0.7836105886414595 0  0.6054488332605282 0.795884231721841 0  0.5894029291282759 0.8078392087135958 0  0.5731210324752972 0.8194707329334278 0  0.5566096624511305 0.8307741472061095 0  0.5398754300847343 0.8417449257291802 0  0.5229250356374803 0.8523786758850435 0  0.5057652659204196 0.8626711399997378 0  0.4884029915768944 0.8726181970476778 0  0.4708451643315825 0.8822158643016828 0  0.45309881420708 0.8914602989276292 0  0.4351710467091336 0.9003477995230937 0  0.4170690399816468 0.9088748075993677 0  0.398800041932607 0.9170379090062476 0  0.3803713673320772 0.9248338352990368 0  0.3617903948834157 0.9322594650472057 0  0.3430645642688987 0.9393118250841893 0  0.3242013731709288 0.9459880916978206 0  0.3052083742700172 0.952285591760924 0  0.2860931722207478 0.9582018038016155 0  0.2668634206069304 0.963734359012881 0  0.2475268188771628 0.9688810422010291 0  0.2280911092620296 0.9736397926726377 0  0.2085640736741707 0.9780087050596407 0  0.1889535305924618 0.9819860300822225 0  0.1692673319315541 0.9855701752492174 0  0.1495133598980264 0.9887597054957302 0  0.1296995238344084 0.9915533437577263 0  0.1098337570523395 0.9939499714833577 0  0.08992401365612977 0.9959486290808237 0  0.06997826535799723 0.9975485163025836 0  0.05000449828625179 0.9987489925657699 0  0.03001070978771124 0.9995495772086734 0  0.01000490522562346 0.9999499496831961 0  -0.01000490522562333 0.9999499496831961 0  -0.03001070978771133 0.9995495772086734 0  -0.05000449828625144 0.9987489925657699 0  -0.06997826535799688 0.9975485163025836 0  -0.08992401365612987 0.9959486290808237 0  -0.1098337570523394 0.9939499714833577 0  -0.1296995238344082 0.9915533437577263 0  -0.1495133598980262 0.9887597054957303 0  -0.1692673319315537 0.9855701752492174 0  -0.1889535305924614 0.9819860300822226 0  -0.2085640736741705 0.9780087050596407 0  -0.2280911092620295 0.9736397926726377 0  -0.2475268188771627 0.9688810422010291 0  -0.2668634206069302 0.9637343590128811 0  -0.2860931722207475 0.9582018038016156 0  -0.3052083742700173 0.9522855917609239 0  -0.3242013731709289 0.9459880916978205 0  -0.3430645642688986 0.9393118250841894 0  -0.3617903948834154 0.9322594650472058 0  -0.380371367332077 0.924833835299037 0  -0.3988000419326071 0.9170379090062476 0  -0.4170690399816465 0.9088748075993678 0  -0.4351710467091335 0.9003477995230939 0  -0.4530988142070799 0.8914602989276292 0  -0.4708451643315824 0.8822158643016829 0  -0.4884029915768945 0.8726181970476778 0  -0.5057652659204197 0.8626711399997378 0  -0.5229250356374801 0.8523786758850437 0  -0.5398754300847342 0.8417449257291804 0  -0.5566096624511303 0.8307741472061098 0  -0.5731210324752971 0.8194707329334279 0  -0.589402929128276 0.8078392087135957 0  -0.6054488332605281 0.7958842317218411 0  -0.6212523202121542 0.7836105886414597 0  -0.6368070623852793 0.7710231937472639 0  -0.652106831777575 0.7581270869379444 0  -0.6671455024759069 0.7449274317181304 0  -0.6819170531091018 0.7314295131309636 0  -0.6964155692588616 0.7176387356420052 0  -0.7106352458278521 0.7035606209753273 0  -0.7245703893640187 0.6892008059026588 0  -0.7382154203402043 0.6745650399864608 0  -0.751564875388149 0.6596591832778469 0  -0.7646134094859813 0.6444892039702628 0  -0.7773557980983258 0.6290611760098654 0  -0.7897869392681683 0.6133812766635599 0  -0.8019018556596398 0.59745578404567 0  -0.8136956965509062 0.5812910746042258 0  -0.8251637397763595 0.5648936205678839 0  -0.836301393617339 0.5482699873544935 0  -0.8471041986406197 0.5314268309423542 0  -0.8575678294839372 0.5143708952052097 0  -0.8676880965878292 0.497109009212054 0  -0.8774609478731045 0.4796480844928216 0  -0.8868824703632656 0.4619951122710621 0  -0.8959488917512338 0.4441571606647088 0  -0.904656581909754 0.426141371856055 0  -0.9130020543448703 0.4079549592320783 0  -0.920981967591891 0.3896052044962555 0  -0.9285931265532872 0.3710994547530226 0  -0.9358324837779861 0.3524451195660473 0  -0.9426971406815462 0.3336496679914984 0  -0.9491843487067303 0.3147206255874888 0  -0.9552915104240065 0.2956655714008993 0  -0.9610161805715396 0.2764921349327862 0  -0.9663560670342555 0.2572079930835851 0  -0.9713090317615876 0.2378208670793361 0  -0.9758730916235353 0.2183385193801658 0  -0.9800464192046954 0.198768750572253 0  -0.9838273435359444 0.1791193962445354 0  -0.987214350763483 0.159398323851397 0  -0.9902060847549714 0.1396134295625972 0  -0.9928013476425149 0.1197726351017052 0  -0.9949991003022804 0.09988388457430147 0  -0.9967984627705549 0.07995514128721509 0  -0.9981987145960756 0.05999438456007793 0  -0.9991992951284931 0.04000960653046362 0  -0.9997998037428526 0.02000880895389464 0  -1 1.224646799147353e-16 0  -0.9997998037428526 -0.0200088089538944 0  -0.9991992951284931 -0.04000960653046338 0  -0.9981987145960756 -0.05999438456007812 0  -0.9967984627705549 -0.07995514128721484 0  -0.9949991003022806 -0.09988388457430078 0  -0.9928013476425149 -0.1197726351017049 0  -0.9902060847549715 -0.1396134295625965 0  -0.9872143507634831 -0.1593983238513963 0  -0.9838273435359444 -0.1791193962445356 0  -0.9800464192046953 -0.1987687505722532 0  -0.9758730916235354 -0.2183385193801655 0  -0.9713090317615876 -0.2378208670793363 0  -0.9663560670342556 -0.2572079930835848 0  -0.9610161805715396 -0.276492134932786 0  -0.9552915104240066 -0.2956655714008991 0  -0.9491843487067305 -0.3147206255874881 0  -0.9426971406815464 -0.3336496679914978 0  -0.9358324837779862 -0.3524451195660471 0  -0.9285931265532875 -0.371099454753022 0  -0.9209819675918909 -0.3896052044962557 0  -0.9130020543448704 -0.407954959232078 0  -0.9046565819097541 -0.4261413718560548 0  -0.8959488917512338 -0.4441571606647086 0  -0.8868824703632655 -0.4619951122710623 0  -0.8774609478731046 -0.4796480844928214 0  -0.8676880965878293 -0.4971090092120538 0  -0.8575678294839373 -0.5143708952052095 0  -0.84710419864062 -0.5314268309423537 0  -0.8363013936173395 -0.5482699873544929 0  -0.8251637397763596 -0.5648936205678838 0  -0.8136956965509061 -0.5812910746042259 0  -0.8019018556596399 -0.5974557840456699 0  -0.7897869392681682 -0.61338127666356 0  -0.777355798098326 -0.6290611760098652 0  -0.7646134094859816 -0.6444892039702625 0  -0.7515648753881492 -0.6596591832778468 0  -0.7382154203402048 -0.6745650399864603 0  -0.7245703893640192 -0.6892008059026583 0  -0.7106352458278522 -0.7035606209753272 0  -0.6964155692588621 -0.7176387356420046 0  -0.6819170531091017 -0.7314295131309637 0  -0.667145502475907 -0.7449274317181303 0  -0.6521068317775756 -0.758127086937944 0  -0.6368070623852792 -0.7710231937472641 0  -0.6212523202121544 -0.7836105886414596 0  -0.6054488332605283 -0.795884231721841 0  -0.5894029291282762 -0.8078392087135956 0  -0.5731210324752977 -0.8194707329334274 0  -0.5566096624511304 -0.8307741472061095 0  -0.5398754300847344 -0.8417449257291802 0  -0.5229250356374798 -0.8523786758850437 0  -0.5057652659204195 -0.8626711399997379 0  -0.4884029915768943 -0.872618197047678 0  -0.4708451643315825 -0.8822158643016828 0  -0.4530988142070805 -0.8914602989276289 0  -0.4351710467091333 -0.900347799523094 0  -0.4170690399816467 -0.9088748075993677 0  -0.3988000419326073 -0.9170379090062475 0  -0.3803713673320777 -0.9248338352990366 0  -0.3617903948834162 -0.9322594650472055 0  -0.3430645642688988 -0.9393118250841893 0  -0.3242013731709283 -0.9459880916978207 0  -0.3052083742700169 -0.9522855917609241 0  -0.2860931722207477 -0.9582018038016155 0  -0.2668634206069305 -0.963734359012881 0  -0.2475268188771631 -0.968881042201029 0  -0.2280911092620301 -0.9736397926726376 0  -0.2085640736741706 -0.9780087050596407 0  -0.1889535305924619 -0.9819860300822225 0  -0.1692673319315544 -0.9855701752492173 0  -0.1495133598980269 -0.9887597054957302 0  -0.1296995238344092 -0.9915533437577262 0  -0.1098337570523396 -0.9939499714833577 0  -0.08992401365612945 -0.9959486290808237 0  -0.06997826535799691 -0.9975485163025836 0  -0.05000449828625168 -0.9987489925657699 0  -0.030010709787
[...]
<PointData  Scalars="Displacement"> 
<DataArray  type="Float64"  Name="Displacement"  format="ascii">0.0000000000000000e+00  0.0000000000000000e+00  0.0000000000000000e+00  0.0000000000000000e+00  0.0000000000000000e+00  0.0000000000000000e+00  0.0000000000000000e+00  0.0000000000000000e+00  0.0000000000000000e+00  0.0000000000000000e+00  0.0000000000000000e+00  0.0000000000000000e+00  0.0000000000000000e+00  0.0000000000000000e+00  0.0000000000000000e+00  0.0000000000000000e+00  0.0000000000000000e+00  0.0000000000000000e+00  0.0000000000000000e+00  0.0000000000000000e+00  0.0000000000000000e+00  0.0000000000000000e+00  0.0000000000000000e+00  0.0000000000000000e+00  0.0000000000000000e+00  0.0000000000000000e+00  0.0000000000000000e+00  0.0000000000000000e+00  0.0000000000000000e+00  0.0000000000000000e+00  0.0000000000000000e+00  0.0000000000000000e+00  0.0000000000000000e+00  0.0000000000000000e+00  0.0000000000000000e+00  0.0000000000000000e+00  0.0000000000000000e+00  0.0000000000000000e+00  0.0000000000000000e+00  0.0000000000000000e+00  0.0000000000000000e+00  0.0000000000000000e+00  0.0000000000000000e+00  0.0000000000000000e+00  0.0000000000000000e+00  0.0000000000000000e+00  0.0000000000000000e+00  0.0000000000000000e+00  0.0000000000000000e+00  0.0000000000000000e+00  0.0000000000000000e+00  0.0000000000000000e+00  0.0000000000000000e+00  0.0000000000000000e+00  0.0000000000000000e+00  0.0000000000000000e+00  0.0000000000000000e+00  0.0000000000000000e+00  0.0000000000000000e+00  0.0000000000000000e+00  0.0000000000000000e+00  0.0000000000000000e+00  0.0000000000000000e+00  0.0000000000000000e+00  0.0000000000000000e+00  0.0000000000000000e+00  0.0000000000000000e+00  0.0000000000000000e+00  0.0000000000000000e+00  0.0000000000000000e+00  0.0000000000000000e+00  0.0000000000000000e+00  0.0000000000000000e+00  0.0000000000000000e+00  0.0000000000000000e+00  0.0000000000000000e+00  0.0000000000000000e+00  0.0000000000000000e+00  0.0000000000000000e+00  0.0000000000000000e+00  0.0000000000000000e+00  0.0000000000000000e+00  0.0000000000000000e+00  0.0000000000000000e+00  0.0000000000000000e+00  0.0000000000000000e+00  0.0000000000000000e+00  0.0000000000000000e+00  0.0000000000000000e+00  0.0000000000000000e+00  0.0000000000000000e+00  0.0000000000000000e+00  0.0000000000000000e+00  0.0000000000000000e+00  0.0000000000000000e+00  0.0000000000000000e+00  0.0000000000000000e+00  0.0000000000000000e+00  0.0000000000000000e+00  0.0000000000000000e+00  0.0000000000000000e+00  0.0000000000000000e+00  0.0000000000000000e+00  0.0000000000000000e+00  0.0000000000000000e+00  0.0000000000000000e+00  0.0000000000000000e+00  0.0000000000000000e+00  0.0000000000000000e+00  0.0000000000000000e+00  0.0000000000000000e+00  0.0000000000000000e+00  0.0000000000000000e+00  0.0000000000000000e+00  0.0000000000000000e+00  0.0000000000000000e+00  0.0000000000000000e+00  0.0000000000000000e+00  0.0000000000000000e+00  0.0000000000000000e+00  0.0000000000000000e+00  0.0000000000000000e+00  0.0000000000000000e+00  0.0000000000000000e+00  0.0000000000000000e+00  0.0000000000000000e+00  0.0000000000000000e+00  0.0000000000000000e+00  0.0000000000000000e+00  0.0000000000000000e+00  0.0000000000000000e+00  0.0000000000000000e+00  0.0000000000000000e+00  0.0000000000000000e+00  0.0000000000000000e+00  0.0000000000000000e+00  0.0000000000000000e+00  0.0000000000000000e+00  0.0000000000000000e+00  0.0000000000000000e+00  0.0000000000000000e+00  0.0000000000000000e+00  0.0000000000000000e+00  0.0000000000000000e+00  0.0000000000000000e+00  0.0000000000000000e+00  0.0000000000000000e+00  0.0000000000000000e+00  0.0000000000000000e+00  0.0000000000000000e+00  0.0000000000000000e+00  0.0000000000000000e+00  0.0000000000000000e+00  0.0000000000000000e+00  0.0000000000000000e+00  0.0000000000000000e+00  0.0000000000000000e+00  0.0000000000000000e+00  0.0000000000000000e+00  0.0000000000000000e+00  0.0000000000000000e+00  0.0000000000000000e+00  0.0000000000000000e+00  0.0000000000000000e+00  0.0000000000000000e+00  0.0000000000000000e+00  0.0000000000000000e+00  0.0000000000000000e+00  0.0000000000000000e+00  0.0000000000000000e+00  0.0000000000000000e+00  0.0000000000000000e+00  0.0000000000000000e+00  0.0000000000000000e+00  0.0000000000000000e+00  0.0000000000000000e+00  0.0000000000000000e+00  0.0000000000000000e+00  0.0000000000000000e+00  0.0000000000000000e+00  0.0000000000000000e+00  0.0000000000000000e+00  0.0000000000000000e+00  0.0000000000000000e+00  0.0000000000000000e+00  0.0000000000000000e+00  0.0000000000000000e+00  0.0000000000000000e+00  0.0000000000000000e+00  0.0000000000000000e+00  0.0000000000000000e+00  0.0000000000000000e+00  0.0000000000000000e+00  0.0000000000000000e+00  0.0000000000000000e+00  0.0000000000000000e+00  0.0000000000000000e+00  0.0000000000000000e+00  0.0000000000000000e+00  0.0000000000000000e+00  0.0000000000000000e+00  0.0000000000000000e+00  0.0000000000000000e+00  0.0000000000000000e+00  0.0000000000000000e+00  0.0000000000000000e+00  0.0000000000000000e+00  0.0000000000000000e+00  0.0000000000000000e+00  0.0000000000000000e+00  0.0000000000000000e+00  0.0000000000000000e+00  0.0000000000000000e+00  0.0000000000000000e+00  0.0000000000000000e+00  0.0000000000000000e+00  0.0000000000000000e+00  0.0000000000000000e+00  0.0000000000000000e+00  0.0000000000000000e+00  0.0000000000000000e+00  0.0000000000000000e+00  0.0000000000000000e+00  0.0000000000000000e+00  0.0000000000000000e+00  0.0000000000000000e+00  0.0000000000000000e+00  0.0000000000000000e+00  0.0000000000000000e+00  0.0000000000000000e+00  0.0000000000000000e+00  0.0000000000000000e+00  0.0000000000000000e+00  0.0000000000000000e+00  0.0000000000000000e+00  0.0000000000000000e+00  0.0000000000000000e+00  0.0000000000000000e+00  0.0000000000000000e+00  0.0000000000000000e+00  0.0000000000000000e+00  0.0000000000000000e+00  0.0000000000000000e+00  0.0000000000000000e+00  0.0000000000000000e+00  0.0000000000000000e+00  0.0000000000000000e+00  0.0000000000000000e+00  0.0000000000000000e+00  0.0000000000000000e+00  0.0000000000000000e+00  0.0000000000000000e+00  0.0000000000000000e+00  0.0000000000000000e+00  0.0000000000000000e+00  0.0000000000000000e+00  0.0000000000000000e+00  0.0000000000000000e+00  0.0000000000000000e+00  0.0000000000000000e+00  0.0000000000000000e+00  0.0000000000000000e+00  0.0000000000000000e+00  0.0000000000000000e+00  0.0000000000000000e+00  0.0000000000000000e+00  0.0000000000000000e+00  0.0000000000000000e+00  0.0000000000000000e+00  0.0000000000000000e+00  0.0000000000000000e+00  0.0000000000000000e+00  0.0000000000000000e+00  0.0000000000000000e+00  0.0000000000000000e+00  0.0000000000000000e+00  0.0000000000000000e+00  0.0000000000000000e+00  0.0000000000000000e+00  0.0000000000000000e+00  0.0000000000000000e+00  0.0000000000000000e+00  0.0000000000000000e+00  0.0000000000000000e+00  0.0000000000000000e+00  0.0000000000000000e+00  0.0000000000000000e+00  0.0000000000000000e+00  0.0000000000000000e+00  0.0000000000000000e+00  0.0000000000000000e+00  0.0000000000000000e+00  0.0000000000000000e+00  0.0000000000000000e+00  0.0000000000000000e+00  0.0000000000000000e+00  0.0000000000000000e+00  0.0000000000000000e+00  0.0000000000000000e+00  0.0000000000000000e+00  0.0000000000000000e+00  0.0000000000000000e+00  0.0000000000000000e+00  0.0000000000000000e+00  0.0000000000000000e+00  0.0000000000000000e+00  0.0000000000000000e+00  0.0000000000000000e+00  0.0000000000000000e+00  0.0000000000000000e+00  0.0000000000000000e+00  0.0000000000000000e+00  0.0000000000000000e+00  0.0000000000000000e+00  3.2321602474579088e+117  -1.5475985304497326e+113  3.4610501635953169e+113  -6.9687679148142151e+114  1.2912491622917714e+113  -8.1117918791742838e+113  3.2394843848893510e+110  -1.2016488323061340e+109  2.4276976076625537e+110  5.6710352193823670e+108  6.3138264889116280e+109  4.1376748876873651e+117  -4.1364937527176140e+109  1.9640729244304023e+108  1.9976178139131284e+117  -1.5429189574176288e+117  2.4100120313950350e+108  -1.3180055838612522e+107  7.1499802192172269e+105  8.9812812724498123e+107  -1.8051797604316672e+106  4.7598821440601181e+107  -5.5449610411200529e+105  1.2696183041476037e+115  1.3046712215897629e+118  -1.3650631029948022e+116  3.5228334640445991e+108  -3.3031584299960058e+105  2.8556802855755602e+107  -7.2016299519370890e+114  -6.5584857162588021e+105  -8.5934513158932107e+117  9.9374595957757542e+118  -8.6345388137667091e+116  1.4885097501209294e+107  -2.0409559823947568e+105  -4.4730208212082615e+104  -3.4829877397787006e+105  -9.1357440898169081e+105  -2.2093740482734175e+113  2.8132104251906587e+114  1.2470827768529481e+110  1.6754178969344401e+112  2.6366391833599636e+118  6.4243585487315728e+104  -4.3182632790456928e+104  5.8694661369482205e+104  2.9088668737199062e+104  -8.2410989548991430e+111  3.7368667924652403e+110  3.1774892022391456e+110  -3.6147577353577686e+110  -4.1737450722918308e+112  2.0019210039781369e+115  -9.0523552049314320e+105  1.1271941636865435e+117  8.0091330159477863e+104  -6.0706916265645227e+104  2.8084674600627117e+114  6.3476152802294329e+104  -5.8766345479446086e+104  1.0455202831614747e+109  -2.5265290754121544e+104  1.3977717943850895e+104  2.7169329531751135e+116  -5.8052084554188765e+117  -3.3664399313950396e+118  -1.0021282315534926e+114  -7.2705761359729444e+117  2.0418406976976551e+115  -2.5287266265081415e+117  1.0524887996380687e+112  -6.6878006713666415e+111  -2.0554865035672355e+111  3.7480468080795560e+110  -2.5489746728736925e+115  1.7211821442141286e+104  -2.6693319180676826e+114  7.3379656597960233e+116  2.7581296396857775e+109  1.7278680992794265e+104  1.9609477088920229e+114  6.7857079796133524e+103  -3.6046993087072569e+103  2.3938642417902299e+103  4.2799087183625792e+119  -3.7029329653261955e+104  -1.0342365392858267e+103  1.9001092143321206e+103  1.0331223098021952e+116  -3.3159364747268927e+108  -2.3650398238197899e+104  -1.0349683478559203e+109  1.0684537327930849e+103  -3.1785728584814856e+109  -1.3297410309759710e+120  -1.1475829430530528e+102  2.5284052724764257e+104  3.0697149161447609e+108  5.5017541543932184e+106  -1.2965565211591883e+110  -3.1104825706769723e+109  -7.3645312869737070e+103  -1.1121501240000718e+115  4.8468435616375875e+112  -2.1689143957354082e+112  -1.2822492910117743e+115  -1.4136551533802779e+109  1.2836225151292618e+109  2.4515637012898960e+103  -4.1997150288346263e+114  -1.4328771261927161e+105  8.5357830884314526e+102  1.1867506761642757e+112  5.8877965011823791e+111  1.6018753976380963e+106  -3.7396320894586915e+102  6.6842626894386251e+101  1.3704772188474600e+102  -4.3954813627427724e+117  -3.1019605860082232e+115  -8.3065713444302836e+106  -3.6321176392166419e+119  2.8266544867010925e+104  3.5645229384512421e+108  2.0917288722800903e+108  -1.6011650873100450e+103  1.0190985802673936e+103  -1.4973897361233359e+107  -4.3477082536435571e+108  -3.5009226358091243e+109  -3.2506692251220124e+108  7.5370769206056107e+111  1.0637678621958931e+114  1.9402192730690398e+110  8.4568184594138520e+107  -1.4958146916330426e+104  -6.3609871093905070e+121  -4.4053275025574742e+115  1.1480305738637438e+116  -1.5669575825261730e+117  1.7223947692378997e+121  2.3130157857204374e+106  -1.6433851821511464e+117  7.2868122149942951e+111  4.4999317156078606e+106  6.9448602474261021e+105  1.1541569228780685e+116  -1.3887897286005626e+119  7.3425385849440736e+106  -8.3814490398658309e+102  -2.6256417559887262e+112  3.3550013828146881e+117  -4.7039425203689499e+105  4.3723729304419291e+105  -3.3762688620743500e+103  6.0600856581411233e+101  -3.5803458908344410e+107  -1.1090506391419524e+103  1.1593299418794850e+101  1.3834237519294192e+102  -6.4991089036137261e+105  -7.6140246191532646e+109  9.4036117991231734e+102  1.7033034485409571e+106  2.2239489061215359e+112  8.5431763480005397e+107  9.8770470287520231e+103  -1.1540461261535957e+102  2.3321122178724740e+105  1.8865826582120859e+112  -9.5807800738835341e+116  -6.0835468315521319e+105  -6.4069496663932818e+116  1.0829184830506121e+102  -7.5392862335343326e+112  -7.5254983704526269e+102  -1.4831296914129221e+107  1.5337036623541024e+101  -9.6425029705055484e+111  1.7591087527485716e+106  4.4811056310993229e+114  1.6670752206008406e+110  -4.6695401084005342e+118  4.7009835907915527e+100  -3.9674923762202019e+111  2.3404103306973332e+110  2.4423378742777884e+114  -3.7314560197629789e+102  1.2187356504866551e+105  -3.5012614069493041e+102  -2.3675864431696973e+118  2.0362156988548160e+102  -5.1222801591741236e+102  -8.1228446719023576e+114  5.8909615920684543e+117  -1.3948469174773159e+107  -2.4325364505054397e+107  1.6322305284868032e+112  1.3673211377927514e+109  -4.2692794149633308e+111  1.9346209738801447e+111  -8.0444606326593049e+111  1.5226043459161003e+108  -2.8612813595107158e+109  -2.6266405277854060e+106  1.2824394663272174e+106  -1.2231962005720095e+117  -3.0263252963982128e+103  6.2427030488338738e+106  6.4704799767409909e+106  1.9093868393234593e+117  -1.0031993819527630e+116  -8.3238751407999099e+103  -1.5812556104509860e+102  3.5005423828424766e+107  1.3771707596987092e+116  -1.3917020775878125e+102  -3.8829752794618769e+109  -1.7921443812311005e+109  1.1419280390031561e+105  5.2637209398945965e+109  -2.0457065630859201e+115  1.5425613082321299e+110  2.2877171525989983e+110  -1.2780374920753718e+102  -2.2418584994117640e+107  -2.9980002983393673e+102  -2.2099994517528590e+107  -5.0813192498479979e+101  1.3044976114790444e+103  -1.7665709321729417e+103  1.2150048873389947e+102  5.2329558583312255e+104  1.2094574745904204e+101  -9.7658127129765025e+112  -2.4516062650461241e+110  -5.4758099872838744e+105  -2.7337841125809126e+105  1.2876177767456472e+116  -1.4429635644343374e+116  5.8788622716067170e+110  1.6699708498213587e+111  -8.3623303271017649e+102  2.1280623219669323e+114  1.4141424227146465e+105  1.6012969240145685e+102  -7.7568423167189094e+101  4.5974881363904041e+115  -4.8618793045181677e+112  -1.1454427884710937e+112  2.0767335834924197e+111  4.9222084584309359e+118  -3.9994825325885318e+117  7.5403430298586390e+103  -4.5012632008388387e+116  -1.2490601497652551e+108  -1.1429739176721428e+113  3.6398816084655934e+102  7.1050175444428044e+100  -1.0120137992021690e+102  -1.3141543699397016e+109  1.4598587044182164e+105  -1.1513472891324722e+113  -1.6307074575021566e+115  -1.5968239628708628e+115  3.2298359806792199e+105  2.5972858367651478e+103  1.8258520661324429e+102  -1.6319273817154085e+111  2.2084967741462347e+100  -3.3514533378639447e+117  2.7595534177171064e+115  -5.0222366217003813e+107  2.3637845403892638e+105  2.6422115530642015e+107  -1.2528719274443631e+118  9.5296039046676073e+115  8.2299882068257547e+114  8.0850469095193001e+113  -9.5611645282630633e+115  -9.3353554587889174e+115  -4.3851678472219170e+118  -1.3219710343013547e+111  -2.5687250840654497e+109  5.6437206720042505e+106  1.2402052514089845e+120  -1.5012072590966222e+103  2.7667704590698155e+105  1.3263939078024644e+116  -4.2843983949814418e+117  -2.9769934828130376e+115  3.0270642836071698e+110  -8.9473494514003594e+111  1.9197178462823705e+120  7.4159168007600419e+102  -1.0462715559422000e+115  -6.9349361413065881e+101  -6.3113174236518616e+101  -5.5944555486987729e+101  4.1778432839161332e+115  7.0919317235686610e+115  2.6724615280696751e+118  6.6129819927371924e+118  -3.1839607560560772e+110  3.6084833769283596e+108  2.2409794024799607e+108  6.8627813976510959e+110  2.5168752528410074e+111  7.0177230987752886e+109  1.6718038237945160e+114  -1.1835893994880344e+111  -6.1945473839282868e+116  -2.6260210079502061e+106  1.7781422487173244e+117  -1.4110832457140078e+116  2.5119994327211919e+111  1.0901933506049897e+107  -3.1697863031057563e+107  -1.4453869368573170e+101  3.1018557436651680e+106  8.2495451966721551e+105  2.7239974404267655e+102  -1.4638738036390866e+117  6.0790124911861280e+101  -4.7961772239663094e+101  1.6661755912351470e+104  3.6670784778778876e+115  -3.4210514993461159e+114  -2.9958088908013448e+117  -2.1712973878423053e+101  4.3507611749788389e+107  -5.6034745858785642e+109  -3.6877746939670251e+114  7.9656885114397331e+114  1.0680706562603168e+108  4.9820602101166990e+113  1.0962091359057725e+115  1.0479396779483647e+121  1.1920920549383033e+108  1.1284148210567936e+106  -1.3790641534877210e+112  -1.5099601025564692e+103  -1.2604130744699869e+104  -2.0368250229592905e+109  -4.7662216072389673e+101  -1.8863203360063177e+106  2.4493122572685711e+107  1.1837876248054761e+100  -4.5484474244001400e+108  4.7544279471889980e+109  2.9215873579280206e+102  1.4950635566582579e+105  5.5332892862372514e+100  1.5865540097525739e+105  1.4244389517535289e+105  6.0479450767690209e+109  4.9323815665711465e+118  -4.9243066193203722e+102  -1.1625505297035665e+117  1.2839332920406139e+118  -7.7217130390702626e+105  -2.5480083970420427e+102  1.9384500902564330e+111  -9.9341307045117778e+104  3.0458455689695659e+119  -2.5708223887551366e+104  -1.6002864938678052e+107  -8.5357833685368677e+116  -2.1551403478486467e+104  -2.0175475512466434e+100  -3.7010211596199347e+101  5.0204006525651746e+104  -1.5491170698899403e+115  1.4956744813521709e+113  5.1034810187789271e+108  1.2968169733350193e+104  -4.1944555084504452e+118  1.5894616612406792e+110  -2.1556203129900544e+102  -1.1036423433996350e+113  1.5417862428446191e+102  3.8034165542072784e+104  -1.5102851559535994e+113  -1.2601437058527259e+101  3.0043621129501160e+120  -2.4574286033999993e+102  2.3590609196179279e+105  -6.1285041993487523e+100  2.0746999152156223e+114  -3.4170624263546899e+110  1.7048574785714239e+107  -2.2203804868694771e+112  1.4378099669077022e+100  1.0541298721405156e+106  8.2929830141276529e+114  2.1604332810895407e+103  -4.3496384657803980e+112  -1.4783346052663518e+108  -6.2916935998061013e+100  -1.3405022650295913e+101  4.7283470543725145e+113  5.6147118697457922e+103  -6.3633354162937390e+114  6.8016374466173803e+106  -6.0797490196822753e+114  -7.7991829624955865e+110  4.8154391495864484e+101  7.7967500003734461e+104  3.0278984286535028e+105  5.5838039488908265e+104  2.4670806229283924e+104  2.9746496713084972e+116  -3.9704356438965374e+117  6.3678272755953341e+120  2.9677716838319560e+116  -4.8176590993880619e+105  1.2364176440468771e+119  -9.7630942470672319e+115  1.0419380385756837e+105  -1.3344395994721264e+101  -3.0550786294484135e+101  -1.0611135267256436e+110  6.4003325661817537e+108  1.6893569771165794e+106  -9.3985261872207505e+115  -3.3133321377180799e+108  -7.1675511187357023e+101  9.6599000585710684e+100  2.4793903355249707e+102  1.8219678338668210e+110  -7.1413071480817206e+104  -3.2913042110280887e+107  2.0035329700344977e+104  8.8452563260865580e+103  -8.2600930292545789e+104  3.9660524353452200e+110  2.1977865126774779e+104  -7.8360407352679761e+112  -2.3454816396272431e+112  9.0421539402149754e+112  -5.5913419460827835e+110  -2.5123197877687806e+112  3.6543436053032887e+113  9.9791022853704123e+104  -5.1536174791039831e+115  1.4481511132619032e+106  -2.6550683652348580e+117  3.0225869649206581e+109  5.5284364435581015e+114  1.8401923439634264e+111  -2.6339630279616457e+119  2.2386388442840399e+105  5.7775770280176259e+101  3.2007697925181116e+103  -1.2811136008431037e+117  1.9828499014055223e+108  -1.5251940911857355e+113  -2.7350760421604418e+113  8.2762372094851826e+103  -3.0139618529293071e+110  -1.8491305522914030e+101  -4.6024744457576748e+119  -5.1986229385816161e+119  -1.8409550282634683e+116  2.0429968009303195e+107  -2.5982924957228570e+104  1.2241857830368888e+105  2.2949616286860188e+108  -2.8025890825341056e+109  3.8171640096687229e+112  3.6284418737851417e+103  -1.0713990217942332e+114  7.4892091641074111e+111  5.0304769887644666e+106  -3.0852893621254730e+119  2.5724054526427452e+107  -7.3878557297638919e+112  -2.2190909084972825e+109  -1.3681252701440292e+111  -8.7198643069673386e+108  1.6378172966541667e+106  -1.7790440149331777e+101  -2.5654150897028469e+104  -1.2781659026362562e+101  -