<?xml version="1.0"?>
<VTKFile type="UnstructuredGrid"  version="0.1"  >
<UnstructuredGrid>
<Piece  NumberOfPoints="20054" NumberOfCells="39478">
<Points>
<DataArray  type="Float64"  NumberOfComponents="3"  format="ascii">1 0 0  0.9997998037428526 0.02000880895389431 0  0.9991992951284931 0.04000960653046352 0  0.9981987145960756 0.05999438456007805 0  0.9967984627705549 0.07995514128721501 0  0.9949991003022806 0.09988388457430118 0  0.9928013476425149 0.1197726351017051 0  0.9902060847549715 0.139613429562597 0  0.987214350763483 0.1593983238513969 0  0.9838273435359444 0.1791193962445356 0  0.9800464192046954 0.198768750572253 0  0.9758730916235354 0.2183385193801655 0  0.9713090317615876 0.237820867079336 0  0.9663560670342555 0.2572079930835849 0  0.9610161805715396 0.2764921349327862 0  0.9552915104240066 0.2956655714008991 0  0.9491843487067304 0.3147206255874884 0  0.9426971406815462 0.3336496679914983 0  0.9358324837779861 0.3524451195660473 0  0.9285931265532873 0.3710994547530225 0  0.9209819675918909 0.3896052044962556 0  0.9130020543448703 0.4079549592320781 0  0.9046565819097542 0.4261413718560547 0  0.8959488917512338 0.4441571606647087 0  0.8868824703632656 0.4619951122710622 0  0.8774609478731046 0.4796480844928215 0  0.8676880965878291 0.4971090092120542 0  0.8575678294839372 0.5143708952052096 0  0.8471041986406199 0.5314268309423539 0  0.8363013936173391 0.5482699873544935 0  0.8251637397763597 0.5648936205678837 0  0.8136956965509062 0.5812910746042258 0  0.8019018556596399 0.5974557840456699 0  0.7897869392681683 0.6133812766635599 0  0.777355798098326 0.6290611760098652 0  0.7646134094859813 0.6444892039702628 0  0.7515648753881492 0.6596591832778468 0  0.7382154203402046 0.6745650399864606 0  0.7245703893640189 0.6892008059026586 0  0.7106352458278521 0.7035606209753273 0  0.6964155692588616 0.7176387356420051 0  0.6819170531091018 0.7314295131309636 0  0.6671455024759069 0.7449274317181303 0  0.6521068317775753 0.7581270869379442 0  0.6368070623852795 0.7710231937472638 0  0.6212523202121545 0.7836105886414595 0  0.6054488332605282 0.795884231721841 0  0.5894029291282759 0.8078392087135958 0  0.5731210324752972 0.8194707329334278 0  0.5566096624511305 0.8307741472061095 0  0.5398754300847343 0.8417449257291802 0  0.5229250356374803 0.8523786758850435 0  0.5057652659204196 0.8626711399997378 0  0.4884029915768944 0.8726181970476778 0  0.4708451643315825 0.8822158643016828 0  0.45309881420708 0.8914602989276292 0  0.4351710467091336 0.9003477995230937 0  0.4170690399816468 0.9088748075993677 0  0.398800041932607 0.9170379090062476 0  0.3803713673320772 0.9248338352990368 0  0.3617903948834157 0.9322594650472057 0  0.3430645642688987 0.9393118250841893 0  0.3242013731709288 0.9459880916978206 0  0.3052083742700172 0.952285591760924 0  0.2860931722207478 0.9582018038016155 0  0.2668634206069304 0.963734359012881 0  0.2475268188771628 0.9688810422010291 0  0.2280911092620296 0.9736397926726377 0  0.2085640736741707 0.9780087050596407 0  0.1889535305924618 0.9819860300822225 0  0.1692673319315541 0.9855701752492174 0  0.1495133598980264 0.9887597054957302 0  0.1296995238344084 0.9915533437577263 0  0.1098337570523395 0.9939499714833577 0  0.08992401365612977 0.9959486290808237 0  0.06997826535799723 0.9975485163025836 0  0.05000449828625179 0.9987489925657699 0  0.03001070978771124 0.9995495772086734 0  0.01000490522562346 0.9999499496831961 0  -0.01000490522562333 0.9999499496831961 0  -0.03001070978771133 0.9995495772086734 0  -0.05000449828625144 0.9987489925657699 0  -0.06997826535799688 0.9975485163025836 0  -0.08992401365612987 0.9959486290808237 0  -0.1098337570523394 0.9939499714833577 0  -0.1296995238344082 0.9915533437577263 0  -0.1495133598980262 0.9887597054957303 0  -0.1692673319315537 0.9855701752492174 0  -0.1889535305924614 0.9819860300822226 0  -0.2085640736741705 0.9780087050596407 0  -0.2280911092620295 0.9736397926726377 0  -0.2475268188771627 0.9688810422010291 0  -0.2668634206069302 0.9637343590128811 0  -0.2860931722207475 0.9582018038016156 0  -0.3052083742700173 0.9522855917609239 0  -0.3242013731709289 0.9459880916978205 0  -0.3430645642688986 0.9393118250841894 0  -0.3617903948834154 0.9322594650472058 0  -0.380371367332077 0.924833835299037 0  -0.3988000419326071 0.9170379090062476 0  -0.4170690399816465 0.9088748075993678 0  -0.4351710467091335 0.9003477995230939 0  -0.4530988142070799 0.8914602989276292 0  -0.4708451643315824 0.8822158643016829 0  -0.4884029915768945 0.8726181970476778 0  -0.5057652659204197 0.8626711399997378 0  -0.5229250356374801 0.8523786758850437 0  -0.5398754300847342 0.8417449257291804 0  -0.5566096624511303 0.8307741472061098 0  -0.5731210324752971 0.8194707329334279 0  -0.589402929128276 0.8078392087135957 0  -0.6054488332605281 0.7958842317218411 0  -0.6212523202121542 0.7836105886414597 0  -0.6368070623852793 0.7710231937472639 0  -0.652106831777575 0.7581270869379444 0  -0.6671455024759069 0.7449274317181304 0  -0.6819170531091018 0.7314295131309636 0  -0.6964155692588616 0.7176387356420052 0  -0.7106352458278521 0.7035606209753273 0  -0.7245703893640187 0.6892008059026588 0  -0.7382154203402043 0.6745650399864608 0  -0.751564875388149 0.6596591832778469 0  -0.7646134094859813 0.6444892039702628 0  -0.7773557980983258 0.6290611760098654 0  -0.7897869392681683 0.6133812766635599 0  -0.8019018556596398 0.59745578404567 0  -0.8136956965509062 0.5812910746042258 0  -0.8251637397763595 0.5648936205678839 0  -0.836301393617339 0.5482699873544935 0  -0.8471041986406197 0.5314268309423542 0  -0.8575678294839372 0.5143708952052097 0  -0.8676880965878292 0.497109009212054 0  -0.8774609478731045 0.4796480844928216 0  -0.8868824703632656 0.4619951122710621 0  -0.8959488917512338 0.4441571606647088 0  -0.904656581909754 0.426141371856055 0  -0.9130020543448703 0.4079549592320783 0  -0.920981967591891 0.3896052044962555 0  -0.9285931265532872 0.3710994547530226 0  -0.9358324837779861 0.3524451195660473 0  -0.9426971406815462 0.3336496679914984 0  -0.9491843487067303 0.3147206255874888 0  -0.9552915104240065 0.2956655714008993 0  -0.9610161805715396 0.2764921349327862 0  -0.9663560670342555 0.2572079930835851 0  -0.9713090317615876 0.2378208670793361 0  -0.9758730916235353 0.2183385193801658 0  -0.9800464192046954 0.198768750572253 0  -0.9838273435359444 0.1791193962445354 0  -0.987214350763483 0.159398323851397 0  -0.9902060847549714 0.1396134295625972 0  -0.9928013476425149 0.1197726351017052 0  -0.9949991003022804 0.09988388457430147 0  -0.9967984627705549 0.07995514128721509 0  -0.9981987145960756 0.05999438456007793 0  -0.9991992951284931 0.04000960653046362 0  -0.9997998037428526 0.02000880895389464 0  -1 1.224646799147353e-16 0  -0.9997998037428526 -0.0200088089538944 0  -0.9991992951284931 -0.04000960653046338 0  -0.9981987145960756 -0.05999438456007812 0  -0.9967984627705549 -0.07995514128721484 0  -0.9949991003022806 -0.09988388457430078 0  -0.9928013476425149 -0.1197726351017049 0  -0.9902060847549715 -0.1396134295625965 0  -0.9872143507634831 -0.1593983238513963 0  -0.9838273435359444 -0.1791193962445356 0  -0.9800464192046953 -0.1987687505722532 0  -0.9758730916235354 -0.2183385193801655 0  -0.9713090317615876 -0.2378208670793363 0  -0.9663560670342556 -0.2572079930835848 0  -0.9610161805715396 -0.276492134932786 0  -0.9552915104240066 -0.2956655714008991 0  -0.9491843487067305 -0.3147206255874881 0  -0.9426971406815464 -0.3336496679914978 0  -0.9358324837779862 -0.3524451195660471 0  -0.9285931265532875 -0.371099454753022 0  -0.9209819675918909 -0.3896052044962557 0  -0.9130020543448704 -0.407954959232078 0  -0.9046565819097541 -0.4261413718560548 0  -0.8959488917512338 -0.4441571606647086 0  -0.8868824703632655 -0.4619951122710623 0  -0.8774609478731046 -0.4796480844928214 0  -0.8676880965878293 -0.4971090092120538 0  -0.8575678294839373 -0.5143708952052095 0  -0.84710419864062 -0.5314268309423537 0  -0.8363013936173395 -0.5482699873544929 0  -0.8251637397763596 -0.5648936205678838 0  -0.8136956965509061 -0.5812910746042259 0  -0.8019018556596399 -0.5974557840456699 0  -0.7897869392681682 -0.61338127666356 0  -0.777355798098326 -0.6290611760098652 0  -0.7646134094859816 -0.6444892039702625 0  -0.7515648753881492 -0.6596591832778468 0  -0.7382154203402048 -0.6745650399864603 0  -0.7245703893640192 -0.6892008059026583 0  -0.7106352458278522 -0.7035606209753272 0  -0.6964155692588621 -0.7176387356420046 0  -0.6819170531091017 -0.7314295131309637 0  -0.667145502475907 -0.7449274317181303 0  -0.6521068317775756 -0.758127086937944 0  -0.6368070623852792 -0.7710231937472641 0  -0.6212523202121544 -0.7836105886414596 0  -0.6054488332605283 -0.795884231721841 0  -0.5894029291282762 -0.8078392087135956 0  -0.5731210324752977 -0.8194707329334274 0  -0.5566096624511304 -0.8307741472061095 0  -0.5398754300847344 -0.8417449257291802 0  -0.5229250356374798 -0.8523786758850437 0  -0.5057652659204195 -0.8626711399997379 0  -0.4884029915768943 -0.872618197047678 0  -0.4708451643315825 -0.8822158643016828 0  -0.4530988142070805 -0.8914602989276289 0  -0.4351710467091333 -0.900347799523094 0  -0.4170690399816467 -0.9088748075993677 0  -0.3988000419326073 -0.9170379090062475 0  -0.3803713673320777 -0.9248338352990366 0  -0.3617903948834162 -0.9322594650472055 0  -0.3430645642688988 -0.9393118250841893 0  -0.3242013731709283 -0.9459880916978207 0  -0.3052083742700169 -0.9522855917609241 0  -0.2860931722207477 -0.9582018038016155 0  -0.2668634206069305 -0.963734359012881 0  -0.2475268188771631 -0.968881042201029 0  -0.2280911092620301 -0.9736397926726376 0  -0.2085640736741706 -0.9780087050596407 0  -0.1889535305924619 -0.9819860300822225 0  -0.1692673319315544 -0.9855701752492173 0  -0.1495133598980269 -0.9887597054957302 0  -0.1296995238344092 -0.9915533437577262 0  -0.1098337570523396 -0.9939499714833577 0  -0.08992401365612945 -0.9959486290808237 0  -0.06997826535799691 -0.9975485163025836 0  -0.05000449828625168 -0.9987489925657699 0  -0.030010709787
[...]
<PointData  Scalars="Displacement"> 
<DataArray  type="Float64"  Name="Displacement"  format="ascii">0.0000000000000000e+00  0.0000000000000000e+00  0.0000000000000000e+00  0.0000000000000000e+00  0.0000000000000000e+00  0.0000000000000000e+00  0.0000000000000000e+00  0.0000000000000000e+00  0.0000000000000000e+00  0.0000000000000000e+00  0.0000000000000000e+00  0.0000000000000000e+00  0.0000000000000000e+00  0.0000000000000000e+00  0.0000000000000000e+00  0.0000000000000000e+00  0.0000000000000000e+00  0.0000000000000000e+00  0.0000000000000000e+00  0.0000000000000000e+00  0.0000000000000000e+00  0.0000000000000000e+00  0.0000000000000000e+00  0.0000000000000000e+00  0.0000000000000000e+00  0.0000000000000000e+00  0.0000000000000000e+00  0.0000000000000000e+00  0.0000000000000000e+00  0.0000000000000000e+00  0.0000000000000000e+00  0.0000000000000000e+00  0.0000000000000000e+00  0.0000000000000000e+00  0.0000000000000000e+00  0.0000000000000000e+00  0.0000000000000000e+00  0.0000000000000000e+00  0.0000000000000000e+00  0.0000000000000000e+00  0.0000000000000000e+00  0.0000000000000000e+00  0.0000000000000000e+00  0.0000000000000000e+00  0.0000000000000000e+00  0.0000000000000000e+00  0.0000000000000000e+00  0.0000000000000000e+00  0.0000000000000000e+00  0.0000000000000000e+00  0.0000000000000000e+00  0.0000000000000000e+00  0.0000000000000000e+00  0.0000000000000000e+00  0.0000000000000000e+00  0.0000000000000000e+00  0.0000000000000000e+00  0.0000000000000000e+00  0.0000000000000000e+00  0.0000000000000000e+00  0.0000000000000000e+00  0.0000000000000000e+00  0.0000000000000000e+00  0.0000000000000000e+00  0.0000000000000000e+00  0.0000000000000000e+00  0.0000000000000000e+00  0.0000000000000000e+00  0.0000000000000000e+00  0.0000000000000000e+00  0.0000000000000000e+00  0.0000000000000000e+00  0.0000000000000000e+00  0.0000000000000000e+00  0.0000000000000000e+00  0.0000000000000000e+00  0.0000000000000000e+00  0.0000000000000000e+00  0.0000000000000000e+00  0.0000000000000000e+00  0.0000000000000000e+00  0.0000000000000000e+00  0.0000000000000000e+00  0.0000000000000000e+00  0.0000000000000000e+00  0.0000000000000000e+00  0.0000000000000000e+00  0.0000000000000000e+00  0.0000000000000000e+00  0.0000000000000000e+00  0.0000000000000000e+00  0.0000000000000000e+00  0.0000000000000000e+00  0.0000000000000000e+00  0.0000000000000000e+00  0.0000000000000000e+00  0.0000000000000000e+00  0.0000000000000000e+00  0.0000000000000000e+00  0.0000000000000000e+00  0.0000000000000000e+00  0.0000000000000000e+00  0.0000000000000000e+00  0.0000000000000000e+00  0.0000000000000000e+00  0.0000000000000000e+00  0.0000000000000000e+00  0.0000000000000000e+00  0.0000000000000000e+00  0.0000000000000000e+00  0.0000000000000000e+00  0.0000000000000000e+00  0.0000000000000000e+00  0.0000000000000000e+00  0.0000000000000000e+00  0.0000000000000000e+00  0.0000000000000000e+00  0.0000000000000000e+00  0.0000000000000000e+00  0.0000000000000000e+00  0.0000000000000000e+00  0.0000000000000000e+00  0.0000000000000000e+00  0.0000000000000000e+00  0.0000000000000000e+00  0.0000000000000000e+00  0.0000000000000000e+00  0.0000000000000000e+00  0.0000000000000000e+00  0.0000000000000000e+00  0.0000000000000000e+00  0.0000000000000000e+00  0.0000000000000000e+00  0.0000000000000000e+00  0.0000000000000000e+00  0.0000000000000000e+00  0.0000000000000000e+00  0.0000000000000000e+00  0.0000000000000000e+00  0.0000000000000000e+00  0.0000000000000000e+00  0.0000000000000000e+00  0.0000000000000000e+00  0.0000000000000000e+00  0.0000000000000000e+00  0.0000000000000000e+00  0.0000000000000000e+00  0.0000000000000000e+00  0.0000000000000000e+00  0.0000000000000000e+00  0.0000000000000000e+00  0.0000000000000000e+00  0.0000000000000000e+00  0.0000000000000000e+00  0.0000000000000000e+00  0.0000000000000000e+00  0.0000000000000000e+00  0.0000000000000000e+00  0.0000000000000000e+00  0.0000000000000000e+00  0.0000000000000000e+00  0.0000000000000000e+00  0.0000000000000000e+00  0.0000000000000000e+00  0.0000000000000000e+00  0.0000000000000000e+00  0.0000000000000000e+00  0.0000000000000000e+00  0.0000000000000000e+00  0.0000000000000000e+00  0.0000000000000000e+00  0.0000000000000000e+00  0.0000000000000000e+00  0.0000000000000000e+00  0.0000000000000000e+00  0.0000000000000000e+00  0.0000000000000000e+00  0.0000000000000000e+00  0.0000000000000000e+00  0.0000000000000000e+00  0.0000000000000000e+00  0.0000000000000000e+00  0.0000000000000000e+00  0.0000000000000000e+00  0.0000000000000000e+00  0.0000000000000000e+00  0.0000000000000000e+00  0.0000000000000000e+00  0.0000000000000000e+00  0.0000000000000000e+00  0.0000000000000000e+00  0.0000000000000000e+00  0.0000000000000000e+00  0.0000000000000000e+00  0.0000000000000000e+00  0.0000000000000000e+00  0.0000000000000000e+00  0.0000000000000000e+00  0.0000000000000000e+00  0.0000000000000000e+00  0.0000000000000000e+00  0.0000000000000000e+00  0.0000000000000000e+00  0.0000000000000000e+00  0.0000000000000000e+00  0.0000000000000000e+00  0.0000000000000000e+00  0.0000000000000000e+00  0.0000000000000000e+00  0.0000000000000000e+00  0.0000000000000000e+00  0.0000000000000000e+00  0.0000000000000000e+00  0.0000000000000000e+00  0.0000000000000000e+00  0.0000000000000000e+00  0.0000000000000000e+00  0.0000000000000000e+00  0.0000000000000000e+00  0.0000000000000000e+00  0.0000000000000000e+00  0.0000000000000000e+00  0.0000000000000000e+00  0.0000000000000000e+00  0.0000000000000000e+00  0.0000000000000000e+00  0.0000000000000000e+00  0.0000000000000000e+00  0.0000000000000000e+00  0.0000000000000000e+00  0.0000000000000000e+00  0.0000000000000000e+00  0.0000000000000000e+00  0.0000000000000000e+00  0.0000000000000000e+00  0.0000000000000000e+00  0.0000000000000000e+00  0.0000000000000000e+00  0.0000000000000000e+00  0.0000000000000000e+00  0.0000000000000000e+00  0.0000000000000000e+00  0.0000000000000000e+00  0.0000000000000000e+00  0.0000000000000000e+00  0.0000000000000000e+00  0.0000000000000000e+00  0.0000000000000000e+00  0.0000000000000000e+00  0.0000000000000000e+00  0.0000000000000000e+00  0.0000000000000000e+00  0.0000000000000000e+00  0.0000000000000000e+00  0.0000000000000000e+00  0.0000000000000000e+00  0.0000000000000000e+00  0.0000000000000000e+00  0.0000000000000000e+00  0.0000000000000000e+00  0.0000000000000000e+00  0.0000000000000000e+00  0.0000000000000000e+00  0.0000000000000000e+00  0.0000000000000000e+00  0.0000000000000000e+00  0.0000000000000000e+00  0.0000000000000000e+00  0.0000000000000000e+00  0.0000000000000000e+00  0.0000000000000000e+00  0.0000000000000000e+00  0.0000000000000000e+00  0.0000000000000000e+00  0.0000000000000000e+00  0.0000000000000000e+00  0.0000000000000000e+00  0.0000000000000000e+00  0.0000000000000000e+00  0.0000000000000000e+00  0.0000000000000000e+00  0.0000000000000000e+00  0.0000000000000000e+00  0.0000000000000000e+00  0.0000000000000000e+00  0.0000000000000000e+00  0.0000000000000000e+00  0.0000000000000000e+00  0.0000000000000000e+00  0.0000000000000000e+00  0.0000000000000000e+00  0.0000000000000000e+00  0.0000000000000000e+00  0.0000000000000000e+00  0.0000000000000000e+00  0.0000000000000000e+00  0.0000000000000000e+00  0.0000000000000000e+00  0.0000000000000000e+00  0.0000000000000000e+00  0.0000000000000000e+00  0.0000000000000000e+00  0.0000000000000000e+00  0.0000000000000000e+00  0.0000000000000000e+00  0.0000000000000000e+00  0.0000000000000000e+00  0.0000000000000000e+00  0.0000000000000000e+00  0.0000000000000000e+00  0.0000000000000000e+00  0.0000000000000000e+00  0.0000000000000000e+00  0.0000000000000000e+00  5.7047139189168164e+87  -4.6245847366065847e+82  7.2266394524472126e+83  -5.6658145613514153e+83  4.8103985881391465e+83  -5.5430111042184857e+82  2.2628180088043506e+81  -5.8594412142962797e+78  -4.1931712269717922e+78  1.4198575536571004e+78  5.8629292112051123e+78  3.4023094476241903e+87  -5.6393109804836116e+77  1.0779272505440599e+77  -1.5571524649390380e+87  -5.9925843551914237e+86  1.3180229920311401e+77  6.3994338809331045e+76  -8.0864193149724911e+75  4.3985039660146836e+76  -5.0118761980751481e+75  4.4686015856806608e+76  4.9474249265942355e+75  1.4755213549413391e+84  1.4590299773244391e+87  9.0105848050282451e+86  1.6237351097963414e+77  4.0335293142860950e+74  9.0615884954998831e+75  2.9085977000471120e+84  1.3988691714987464e+75  -5.0938395965461951e+86  4.3572656093896387e+88  -3.1158926052321517e+85  2.4026560545273041e+76  -7.2157631124741966e+73  -1.4281080789925302e+73  -3.4074388895737314e+74  3.4215149420017425e+74  -3.2989601685245020e+82  3.5385838311570797e+83  -1.2305224287974669e+80  1.8188625208719238e+81  -5.4958367690620058e+87  8.1125024306961129e+72  -9.7815768321655999e+73  4.8368004242334658e+73  5.9963221553377490e+73  -1.7782179946606300e+81  -1.9089543003069735e+80  1.2173856474995998e+79  -9.3632850059910786e+80  -1.4305752214004205e+81  2.1660592181274195e+84  -1.8233117303613181e+74  -2.7232773418970227e+87  -5.4257153922445537e+73  7.1521275670095515e+72  -7.1648212492650937e+83  3.5318092637969818e+73  -4.7086064123621612e+72  3.4642728086311875e+78  -4.8997035580150498e+73  7.1919121037566378e+72  -3.0109059413108454e+87  5.9037968709837138e+87  -8.8880409055528611e+87  -3.8829303030306387e+83  -1.2211394479734681e+87  -3.7116656059626907e+86  -4.5035535338358080e+86  5.7445047309525276e+81  1.0121550136015502e+80  1.9564889663825412e+80  5.1419643984215822e+79  2.1866017919958322e+85  5.0355769931624029e+72  -1.9592142459687762e+84  2.5785708295354235e+86  -7.1368575495724755e+79  8.1059979199182734e+72  -5.6678195337842119e+83  1.0732250714721954e+72  -1.2421786229772320e+73  9.2388607077886144e+71  7.6801695384065858e+89  -2.5839033743347957e+73  -5.2074067696558314e+71  7.9984264521419444e+72  2.8630211371038584e+86  -6.2142242830303542e+77  -1.8906975608984376e+73  8.4813705670607396e+78  -1.0209959969711119e+72  -2.7217206216823554e+78  -3.7120513910913407e+89  -2.8858472216267034e+71  9.1594039843290269e+72  3.2275463820700764e+77  -3.3231870271700734e+76  -5.6592949347300099e+79  -3.6067657730221669e+78  -1.1355052182894087e+73  -3.0664450336896462e+84  1.4303809637347332e+82  -1.1390871901210971e+82  -2.5370314071846158e+84  -4.5512790847288005e+78  1.3146619208363733e+78  -4.0299625713971486e+71  -4.6275450495903870e+83  -1.2063054671921620e+73  3.2800341854104186e+71  2.5092199568867420e+81  4.2190961231789918e+80  -1.3859516777901193e+76  1.4638226851134724e+72  8.4906423489666587e+71  -4.1551885869718407e+70  -1.0376846775684686e+87  -2.7031936524650167e+85  -3.1981197462475930e+74  -1.0293606475058417e+89  9.6609760674845437e+72  -7.8427037910418456e+75  2.1395931925579722e+78  -4.2038279307726210e+70  -5.0957057477271118e+71  -1.3528008323890676e+76  9.7974015183379266e+76  4.3458518076456247e+78  -2.2826143321845174e+77  1.4197036782409487e+81  2.0337784506762616e+83  -1.4342524061525534e+79  4.4532675444912542e+77  -5.0687894719105921e+72  -7.3606374065295724e+90  3.8488660817215145e+85  7.6097878623659961e+85  -2.4972960229660655e+87  3.0716678597464752e+90  6.7283634992569054e+75  -5.3767909529776048e+85  5.6064998654135018e+80  5.4406450733147049e+75  2.9952626607023184e+74  9.2758789920039684e+85  1.8890291836070465e+89  -8.0051523463173043e+78  -8.6901604353632380e+69  5.4110325514253181e+80  5.0405494347855042e+86  1.7484515042788078e+75  -2.8320373388336950e+75  4.9208836940845479e+73  7.8632337944991798e+69  -2.4042779847460464e+76  -1.9776520016284015e+71  1.8918808739423608e+70  -2.6616239535955258e+70  -7.4945772744025216e+74  1.1842257312121536e+79  2.3537362010634857e+71  5.9640774556987154e+74  1.9348263878288695e+81  2.9557536664599754e+76  2.8367562199690795e+73  -9.8373473110655879e+70  2.6737103931855363e+75  1.5929668612931690e+82  2.4370879836375917e+87  -4.1457769876642031e+74  -1.1509944035406090e+86  -1.0325505753065672e+71  -3.8598971317540902e+82  -4.4047142083065418e+71  -4.9292544784373568e+75  6.0917326936253204e+71  -1.7600082824211131e+83  5.7372855091039690e+74  1.1032773083043908e+84  1.4068381477674941e+79  5.2549460439762122e+89  -1.4592832477219810e+69  -3.2143856760289602e+80  1.9325697900164389e+79  4.2685665745577350e+83  -1.9952738554925353e+71  -9.7178216160745420e+73  -1.5665223984509826e+71  -2.2768821781493482e+87  5.1660667259167687e+71  -3.1875333387954481e+71  -2.3616754351991371e+83  5.9322198543914942e+86  3.8204943004834782e+75  -1.5082077961968152e+76  -6.1537439496620542e+81  9.8440871458438498e+77  -4.4313750601977920e+80  9.0788336589451412e+80  7.6665631104870133e+81  -7.3314085065847087e+77  -2.8364860827963140e+79  -8.1155462996897693e+75  1.5357297090097378e+75  9.8776780311070606e+86  4.2142730816423128e+72  8.7221276153294525e+75  1.4484790159019698e+76  -2.8135522599269039e+86  2.8384298502799516e+86  -3.9063566814214646e+72  -4.1624226368333827e+70  1.3750755214025537e+76  1.4001064455317662e+85  -3.3195399674377459e+71  -8.1369186748455303e+78  -1.6056333192824136e+79  2.6989778736203763e+73  3.3793818182159683e+78  -3.6674221431796173e+84  1.1359989498941304e+80  -2.1393404166718853e+78  1.7435153673707767e+70  -1.1036824415546437e+77  1.4713855257948247e+71  -1.8344128692696991e+78  -6.2272749221657481e+70  -9.4862368884131496e+71  3.9216296113018414e+71  -2.7057121065990440e+70  1.3955031118047243e+73  2.3938319124870622e+69  2.3268181374417003e+81  4.9502497457487271e+78  -8.0071687305379072e+74  -2.7701813478335880e+74  -2.4199093929578589e+86  1.5814581980524689e+87  1.1733465095249019e+80  1.4626337273519934e+80  1.3155676525363619e+71  2.2928949985695133e+83  8.8664211113294689e+72  -2.3918228320809476e+70  3.2314262948301285e+69  5.1142207516220971e+84  -2.2906250691307766e+81  -9.8146662717977638e+80  5.4836887270231097e+80  2.1666462567637058e+87  5.4411894380647368e+87  5.5640457517144585e+72  -1.3428391047866306e+86  -4.5804907454537911e+76  -5.6224156486871844e+82  -2.5576461047829706e+71  -2.3447840142692875e+70  -2.7974939214081202e+71  -1.8836616072915262e+78  -4.6208112881222344e+73  -4.5412926561670858e+81  -2.6626123682625028e+84  3.4983785232477139e+84  1.1190086734540922e+74  -1.2459197263754629e+71  1.4694957833239623e+71  -7.2155820730858216e+80  -2.4397396012229789e+69  -9.4322483955446686e+86  7.4534669560078544e+84  -1.7302280905059366e+77  1.8847561356146307e+75  -4.1737948814679780e+76  -4.9361994999639516e+86  -2.6200793487335835e+86  -1.3291159730060697e+85  -1.6745175924261344e+84  9.3755967048804662e+85  -1.8727579238534439e+85  4.1403427715975071e+88  5.7552421872866334e+79  -2.4941035059714111e+78  2.2383688322231624e+75  3.5170112965338465e+89  -3.5069231594177914e+71  6.6726365215548132e+73  2.3500611016078850e+85  6.7898903986792279e+88  -3.2054458111645861e+84  2.7418400146399596e+80  1.9664831996117511e+82  3.4285449401978589e+89  5.1330106762231389e+71  -2.4365017210220598e+83  -3.8990212557029100e+70  -1.5277248708261066e+70  3.0838403709707907e+70  -4.2722286332208101e+86  6.1079512360245050e+85  4.7575699239327944e+87  1.1791583887662145e+88  -1.2945751441489203e+79  5.1768238847154260e+78  1.9689740081675868e+77  2.3586399939984395e+80  8.8753429228219835e+79  3.1972984028791039e+79  4.7772937792181025e+83  -2.3207327981750945e+80  -1.1486644668949721e+87  7.5584574151588118e+75  -2.9471422747348018e+87  1.8631036683269461e+86  -2.4877044637858961e+80  2.2084983109582082e+76  -4.6689790509374939e+77  -1.2152196917718137e+70  6.8906989872722350e+75  7.2885027252972653e+75  1.2237466268400641e+71  -1.1278840055031563e+86  9.7871767564332219e+69  -6.8310834428093238e+70  -7.6487908245112734e+72  9.5229302448947938e+85  3.0885975142809872e+84  3.1807786764736138e+87  7.5874877681855078e+67  8.3749372949201160e+76  -7.1647311371052254e+78  -1.0794537779275073e+84  2.9621650588564578e+84  1.0283299152840053e+77  -8.6073233195565477e+83  1.2180995374965375e+85  2.9663926184526172e+90  -2.2178796649323193e+77  1.2023495689729488e+74  4.1604457205698208e+82  -1.0916058983453514e+73  7.8964110687847218e+72  -5.2263553029984749e+77  5.4404350625916429e+69  -2.4648780934162948e+75  2.9551258283345454e+75  1.5939263991275121e+70  -5.1286217905429831e+76  1.7500155278648326e+79  1.7295931446078820e+71  -1.1458524145339669e+73  2.6425766583308215e+69  1.5419828950573277e+75  1.0596049916541431e+74  -8.7499579172116533e+79  8.8499135056817904e+88  -4.6251452262671137e+70  6.4519251584407532e+85  5.0955346941941525e+87  6.6411153328382980e+73  -2.4467271497970424e+71  3.4771707612400621e+80  -1.5298121309647990e+72  5.4276612435589231e+88  -1.7468852928053789e+73  -3.4206723591416574e+76  3.4548694205602851e+87  -2.0094463471182935e+74  -2.3958506677534255e+70  1.3413754488530219e+71  4.5670964318212458e+74  3.5351827869723906e+85  -3.5033548499208027e+84  1.7474454695822964e+77  3.9849899193324126e+72  -1.2082272077044730e+88  4.2392854243843251e+79  1.1467699734480510e+71  -4.5153612534097388e+82  -2.2111739516784216e+70  -2.2743999423941683e+73  -1.8928272676349628e+83  -9.8637538673464556e+70  3.4743893013594859e+89  -1.0024678889342320e+71  2.0652915166543228e+74  7.1143617042483568e+69  -1.2953662513553730e+83  1.5334350239480610e+80  -6.4083580024975651e+76  -1.4628061564695641e+82  -3.7679880583682168e+69  2.7838593512280929e+74  1.9146021417556114e+84  3.0681105502747359e+71  -3.6326857110540891e+81  -3.4475629237460135e+76  -3.6543619162508743e+69  8.4918642783737796e+69  4.3902900227292323e+82  5.8877666014256172e+72  -1.8941628917515493e+84  -2.7299638829787308e+76  -1.4674818938109023e+83  1.3961856320989312e+81  -7.1487235964083351e+69  3.1825527608461340e+73  4.6511038858214710e+74  3.8187622781673299e+73  -2.9763710147381967e+73  7.2739032740085634e+85  -4.0442856486981886e+86  1.8053538832759032e+90  8.3044346399055548e+85  -2.8190821419964592e+74  3.5448521660450879e+88  -1.9594369702439687e+85  6.2985833191372595e+70  7.9988425749628886e+69  2.4661119494052918e+70  -4.2632736733644944e+78  -1.1102011771842299e+79  1.1996255349797006e+76  -1.1012319504369952e+85  -6.1705407167363029e+77  -3.0078204997956080e+70  2.4228442216373738e+68  -8.9779419816679743e+70  1.9519253161676098e+79  -3.3219196230539238e+73  1.4011968324683500e+76  6.0570446514577302e+72  -4.0584198024795966e+72  3.1111531517917460e+73  4.2673851822300505e+79  1.2068455135467476e+73  2.6920526185965640e+83  -2.1788441275292264e+81  1.2088593559637223e+82  -1.6892181467251637e+80  -9.4862808119493059e+81  2.7177694879193806e+83  -1.5067982741478367e+73  1.2245848988526030e+84  2.5818654225987638e+75  -1.9092241174750919e+89  3.1047855353091012e+78  7.2243395189285660e+83  2.5090096018614017e+81  -9.3022272724261598e+87  9.5939605320794251e+73  -3.2594900893216818e+70  2.0642682777729970e+71  1.4387376863046650e+88  6.6656824214287594e+77  -5.9913344554488630e+82  -2.9923545194613078e+82  3.9888822970394713e+72  -3.4958343170310834e+80  -1.0988743980395321e+70  -6.5448873349007086e+88  -6.0134659122499104e+88  1.7731248185367751e+84  9.7733222441058591e+75  -1.8075675616378724e+74  9.8242968368807062e+73  5.4253657040369298e+77  -8.6859307047009909e+77  3.0117534790453692e+81  2.5988045086697464e+72  2.0828675394941841e+84  -3.2931737162887786e+81  5.3205648196051150e+75  -8.6873087597928305e+88  1.1755923416482351e+76  -1.4598437687565516e+82  -6.7941790029122356e+77  -8.0672779206938200e+79  -1.4950342041107181e+78  3.9615526830955581e+74  -7.7514267184154739e+67  -1.6712089847648571e+73  7.7431327883733432e+69  5.5107358850010321e+72  3.9149291609874319e+70  -1.0461887893261237e+85  6.5779544524881252e+74  -9.8497852542423197e+79  -3.0460949913385964e+75  5.9179306264007621e+84  -2.1922980265734570e+82  4.0421438396574810e+87  1.5564129571701385e+71  4.9299442646999436e+85  1.2565115635204642e+70  5.7971645834159395e+69  -9.2686796219732899e+70  -2.3558284073351103e+80  1.5479427549623841e+72  2.5782426622956888e+72  -1.9365808665975701e+82  -1.2128815416924289e+82  1.5550835985220454e+80  1.46