<?xml version="1.0"?>
<VTKFile type="UnstructuredGrid"  version="0.1"  >
<UnstructuredGrid>
<Piece  NumberOfPoints="20054" NumberOfCells="39478">
<Points>
<DataArray  type="Float64"  NumberOfComponents="3"  format="ascii">1 0 0  0.9997998037428526 0.02000880895389431 0  0.9991992951284931 0.04000960653046352 0  0.9981987145960756 0.05999438456007805 0  0.9967984627705549 0.07995514128721501 0  0.9949991003022806 0.09988388457430118 0  0.9928013476425149 0.1197726351017051 0  0.9902060847549715 0.139613429562597 0  0.987214350763483 0.1593983238513969 0  0.9838273435359444 0.1791193962445356 0  0.9800464192046954 0.198768750572253 0  0.9758730916235354 0.2183385193801655 0  0.9713090317615876 0.237820867079336 0  0.9663560670342555 0.2572079930835849 0  0.9610161805715396 0.2764921349327862 0  0.9552915104240066 0.2956655714008991 0  0.9491843487067304 0.3147206255874884 0  0.9426971406815462 0.3336496679914983 0  0.9358324837779861 0.3524451195660473 0  0.9285931265532873 0.3710994547530225 0  0.9209819675918909 0.3896052044962556 0  0.9130020543448703 0.4079549592320781 0  0.9046565819097542 0.4261413718560547 0  0.8959488917512338 0.4441571606647087 0  0.8868824703632656 0.4619951122710622 0  0.8774609478731046 0.4796480844928215 0  0.8676880965878291 0.4971090092120542 0  0.8575678294839372 0.5143708952052096 0  0.8471041986406199 0.5314268309423539 0  0.8363013936173391 0.5482699873544935 0  0.8251637397763597 0.5648936205678837 0  0.8136956965509062 0.5812910746042258 0  0.8019018556596399 0.5974557840456699 0  0.7897869392681683 0.6133812766635599 0  0.777355798098326 0.6290611760098652 0  0.7646134094859813 0.6444892039702628 0  0.7515648753881492 0.6596591832778468 0  0.7382154203402046 0.6745650399864606 0  0.7245703893640189 0.6892008059026586 0  0.7106352458278521 0.7035606209753273 0  0.6964155692588616 0.7176387356420051 0  0.6819170531091018 0.7314295131309636 0  0.6671455024759069 0.7449274317181303 0  0.6521068317775753 0.7581270869379442 0  0.6368070623852795 0.7710231937472638 0  0.6212523202121545 0.7836105886414595 0  0.6054488332605282 0.795884231721841 0  0.5894029291282759 0.8078392087135958 0  0.5731210324752972 0.8194707329334278 0  0.5566096624511305 0.8307741472061095 0  0.5398754300847343 0.8417449257291802 0  0.5229250356374803 0.8523786758850435 0  0.5057652659204196 0.8626711399997378 0  0.4884029915768944 0.8726181970476778 0  0.4708451643315825 0.8822158643016828 0  0.45309881420708 0.8914602989276292 0  0.4351710467091336 0.9003477995230937 0  0.4170690399816468 0.9088748075993677 0  0.398800041932607 0.9170379090062476 0  0.3803713673320772 0.9248338352990368 0  0.3617903948834157 0.9322594650472057 0  0.3430645642688987 0.9393118250841893 0  0.3242013731709288 0.9459880916978206 0  0.3052083742700172 0.952285591760924 0  0.2860931722207478 0.9582018038016155 0  0.2668634206069304 0.963734359012881 0  0.2475268188771628 0.9688810422010291 0  0.2280911092620296 0.9736397926726377 0  0.2085640736741707 0.9780087050596407 0  0.1889535305924618 0.9819860300822225 0  0.1692673319315541 0.9855701752492174 0  0.1495133598980264 0.9887597054957302 0  0.1296995238344084 0.9915533437577263 0  0.1098337570523395 0.9939499714833577 0  0.08992401365612977 0.9959486290808237 0  0.06997826535799723 0.9975485163025836 0  0.05000449828625179 0.9987489925657699 0  0.03001070978771124 0.9995495772086734 0  0.01000490522562346 0.9999499496831961 0  -0.01000490522562333 0.9999499496831961 0  -0.03001070978771133 0.9995495772086734 0  -0.05000449828625144 0.9987489925657699 0  -0.06997826535799688 0.9975485163025836 0  -0.08992401365612987 0.9959486290808237 0  -0.1098337570523394 0.9939499714833577 0  -0.1296995238344082 0.9915533437577263 0  -0.1495133598980262 0.9887597054957303 0  -0.1692673319315537 0.9855701752492174 0  -0.1889535305924614 0.9819860300822226 0  -0.2085640736741705 0.9780087050596407 0  -0.2280911092620295 0.9736397926726377 0  -0.2475268188771627 0.9688810422010291 0  -0.2668634206069302 0.9637343590128811 0  -0.2860931722207475 0.9582018038016156 0  -0.3052083742700173 0.9522855917609239 0  -0.3242013731709289 0.9459880916978205 0  -0.3430645642688986 0.9393118250841894 0  -0.3617903948834154 0.9322594650472058 0  -0.380371367332077 0.924833835299037 0  -0.3988000419326071 0.9170379090062476 0  -0.4170690399816465 0.9088748075993678 0  -0.4351710467091335 0.9003477995230939 0  -0.4530988142070799 0.8914602989276292 0  -0.4708451643315824 0.8822158643016829 0  -0.4884029915768945 0.8726181970476778 0  -0.5057652659204197 0.8626711399997378 0  -0.5229250356374801 0.8523786758850437 0  -0.5398754300847342 0.8417449257291804 0  -0.5566096624511303 0.8307741472061098 0  -0.5731210324752971 0.8194707329334279 0  -0.589402929128276 0.8078392087135957 0  -0.6054488332605281 0.7958842317218411 0  -0.6212523202121542 0.7836105886414597 0  -0.6368070623852793 0.7710231937472639 0  -0.652106831777575 0.7581270869379444 0  -0.6671455024759069 0.7449274317181304 0  -0.6819170531091018 0.7314295131309636 0  -0.6964155692588616 0.7176387356420052 0  -0.7106352458278521 0.7035606209753273 0  -0.7245703893640187 0.6892008059026588 0  -0.7382154203402043 0.6745650399864608 0  -0.751564875388149 0.6596591832778469 0  -0.7646134094859813 0.6444892039702628 0  -0.7773557980983258 0.6290611760098654 0  -0.7897869392681683 0.6133812766635599 0  -0.8019018556596398 0.59745578404567 0  -0.8136956965509062 0.5812910746042258 0  -0.8251637397763595 0.5648936205678839 0  -0.836301393617339 0.5482699873544935 0  -0.8471041986406197 0.5314268309423542 0  -0.8575678294839372 0.5143708952052097 0  -0.8676880965878292 0.497109009212054 0  -0.8774609478731045 0.4796480844928216 0  -0.8868824703632656 0.4619951122710621 0  -0.8959488917512338 0.4441571606647088 0  -0.904656581909754 0.426141371856055 0  -0.9130020543448703 0.4079549592320783 0  -0.920981967591891 0.3896052044962555 0  -0.9285931265532872 0.3710994547530226 0  -0.9358324837779861 0.3524451195660473 0  -0.9426971406815462 0.3336496679914984 0  -0.9491843487067303 0.3147206255874888 0  -0.9552915104240065 0.2956655714008993 0  -0.9610161805715396 0.2764921349327862 0  -0.9663560670342555 0.2572079930835851 0  -0.9713090317615876 0.2378208670793361 0  -0.9758730916235353 0.2183385193801658 0  -0.9800464192046954 0.198768750572253 0  -0.9838273435359444 0.1791193962445354 0  -0.987214350763483 0.159398323851397 0  -0.9902060847549714 0.1396134295625972 0  -0.9928013476425149 0.1197726351017052 0  -0.9949991003022804 0.09988388457430147 0  -0.9967984627705549 0.07995514128721509 0  -0.9981987145960756 0.05999438456007793 0  -0.9991992951284931 0.04000960653046362 0  -0.9997998037428526 0.02000880895389464 0  -1 1.224646799147353e-16 0  -0.9997998037428526 -0.0200088089538944 0  -0.9991992951284931 -0.04000960653046338 0  -0.9981987145960756 -0.05999438456007812 0  -0.9967984627705549 -0.07995514128721484 0  -0.9949991003022806 -0.09988388457430078 0  -0.9928013476425149 -0.1197726351017049 0  -0.9902060847549715 -0.1396134295625965 0  -0.9872143507634831 -0.1593983238513963 0  -0.9838273435359444 -0.1791193962445356 0  -0.9800464192046953 -0.1987687505722532 0  -0.9758730916235354 -0.2183385193801655 0  -0.9713090317615876 -0.2378208670793363 0  -0.9663560670342556 -0.2572079930835848 0  -0.9610161805715396 -0.276492134932786 0  -0.9552915104240066 -0.2956655714008991 0  -0.9491843487067305 -0.3147206255874881 0  -0.9426971406815464 -0.3336496679914978 0  -0.9358324837779862 -0.3524451195660471 0  -0.9285931265532875 -0.371099454753022 0  -0.9209819675918909 -0.3896052044962557 0  -0.9130020543448704 -0.407954959232078 0  -0.9046565819097541 -0.4261413718560548 0  -0.8959488917512338 -0.4441571606647086 0  -0.8868824703632655 -0.4619951122710623 0  -0.8774609478731046 -0.4796480844928214 0  -0.8676880965878293 -0.4971090092120538 0  -0.8575678294839373 -0.5143708952052095 0  -0.84710419864062 -0.5314268309423537 0  -0.8363013936173395 -0.5482699873544929 0  -0.8251637397763596 -0.5648936205678838 0  -0.8136956965509061 -0.5812910746042259 0  -0.8019018556596399 -0.5974557840456699 0  -0.7897869392681682 -0.61338127666356 0  -0.777355798098326 -0.6290611760098652 0  -0.7646134094859816 -0.6444892039702625 0  -0.7515648753881492 -0.6596591832778468 0  -0.7382154203402048 -0.6745650399864603 0  -0.7245703893640192 -0.6892008059026583 0  -0.7106352458278522 -0.7035606209753272 0  -0.6964155692588621 -0.7176387356420046 0  -0.6819170531091017 -0.7314295131309637 0  -0.667145502475907 -0.7449274317181303 0  -0.6521068317775756 -0.758127086937944 0  -0.6368070623852792 -0.7710231937472641 0  -0.6212523202121544 -0.7836105886414596 0  -0.6054488332605283 -0.795884231721841 0  -0.5894029291282762 -0.8078392087135956 0  -0.5731210324752977 -0.8194707329334274 0  -0.5566096624511304 -0.8307741472061095 0  -0.5398754300847344 -0.8417449257291802 0  -0.5229250356374798 -0.8523786758850437 0  -0.5057652659204195 -0.8626711399997379 0  -0.4884029915768943 -0.872618197047678 0  -0.4708451643315825 -0.8822158643016828 0  -0.4530988142070805 -0.8914602989276289 0  -0.4351710467091333 -0.900347799523094 0  -0.4170690399816467 -0.9088748075993677 0  -0.3988000419326073 -0.9170379090062475 0  -0.3803713673320777 -0.9248338352990366 0  -0.3617903948834162 -0.9322594650472055 0  -0.3430645642688988 -0.9393118250841893 0  -0.3242013731709283 -0.9459880916978207 0  -0.3052083742700169 -0.9522855917609241 0  -0.2860931722207477 -0.9582018038016155 0  -0.2668634206069305 -0.963734359012881 0  -0.2475268188771631 -0.968881042201029 0  -0.2280911092620301 -0.9736397926726376 0  -0.2085640736741706 -0.9780087050596407 0  -0.1889535305924619 -0.9819860300822225 0  -0.1692673319315544 -0.9855701752492173 0  -0.1495133598980269 -0.9887597054957302 0  -0.1296995238344092 -0.9915533437577262 0  -0.1098337570523396 -0.9939499714833577 0  -0.08992401365612945 -0.9959486290808237 0  -0.06997826535799691 -0.9975485163025836 0  -0.05000449828625168 -0.9987489925657699 0  -0.030010709787
[...]
<PointData  Scalars="Displacement"> 
<DataArray  type="Float64"  Name="Displacement"  format="ascii">0.0000000000000000e+00  0.0000000000000000e+00  0.0000000000000000e+00  0.0000000000000000e+00  0.0000000000000000e+00  0.0000000000000000e+00  0.0000000000000000e+00  0.0000000000000000e+00  0.0000000000000000e+00  0.0000000000000000e+00  0.0000000000000000e+00  0.0000000000000000e+00  0.0000000000000000e+00  0.0000000000000000e+00  0.0000000000000000e+00  0.0000000000000000e+00  0.0000000000000000e+00  0.0000000000000000e+00  0.0000000000000000e+00  0.0000000000000000e+00  0.0000000000000000e+00  0.0000000000000000e+00  0.0000000000000000e+00  0.0000000000000000e+00  0.0000000000000000e+00  0.0000000000000000e+00  0.0000000000000000e+00  0.0000000000000000e+00  0.0000000000000000e+00  0.0000000000000000e+00  0.0000000000000000e+00  0.0000000000000000e+00  0.0000000000000000e+00  0.0000000000000000e+00  0.0000000000000000e+00  0.0000000000000000e+00  0.0000000000000000e+00  0.0000000000000000e+00  0.0000000000000000e+00  0.0000000000000000e+00  0.0000000000000000e+00  0.0000000000000000e+00  0.0000000000000000e+00  0.0000000000000000e+00  0.0000000000000000e+00  0.0000000000000000e+00  0.0000000000000000e+00  0.0000000000000000e+00  0.0000000000000000e+00  0.0000000000000000e+00  0.0000000000000000e+00  0.0000000000000000e+00  0.0000000000000000e+00  0.0000000000000000e+00  0.0000000000000000e+00  0.0000000000000000e+00  0.0000000000000000e+00  0.0000000000000000e+00  0.0000000000000000e+00  0.0000000000000000e+00  0.0000000000000000e+00  0.0000000000000000e+00  0.0000000000000000e+00  0.0000000000000000e+00  0.0000000000000000e+00  0.0000000000000000e+00  0.0000000000000000e+00  0.0000000000000000e+00  0.0000000000000000e+00  0.0000000000000000e+00  0.0000000000000000e+00  0.0000000000000000e+00  0.0000000000000000e+00  0.0000000000000000e+00  0.0000000000000000e+00  0.0000000000000000e+00  0.0000000000000000e+00  0.0000000000000000e+00  0.0000000000000000e+00  0.0000000000000000e+00  0.0000000000000000e+00  0.0000000000000000e+00  0.0000000000000000e+00  0.0000000000000000e+00  0.0000000000000000e+00  0.0000000000000000e+00  0.0000000000000000e+00  0.0000000000000000e+00  0.0000000000000000e+00  0.0000000000000000e+00  0.0000000000000000e+00  0.0000000000000000e+00  0.0000000000000000e+00  0.0000000000000000e+00  0.0000000000000000e+00  0.0000000000000000e+00  0.0000000000000000e+00  0.0000000000000000e+00  0.0000000000000000e+00  0.0000000000000000e+00  0.0000000000000000e+00  0.0000000000000000e+00  0.0000000000000000e+00  0.0000000000000000e+00  0.0000000000000000e+00  0.0000000000000000e+00  0.0000000000000000e+00  0.0000000000000000e+00  0.0000000000000000e+00  0.0000000000000000e+00  0.0000000000000000e+00  0.0000000000000000e+00  0.0000000000000000e+00  0.0000000000000000e+00  0.0000000000000000e+00  0.0000000000000000e+00  0.0000000000000000e+00  0.0000000000000000e+00  0.0000000000000000e+00  0.0000000000000000e+00  0.0000000000000000e+00  0.0000000000000000e+00  0.0000000000000000e+00  0.0000000000000000e+00  0.0000000000000000e+00  0.0000000000000000e+00  0.0000000000000000e+00  0.0000000000000000e+00  0.0000000000000000e+00  0.0000000000000000e+00  0.0000000000000000e+00  0.0000000000000000e+00  0.0000000000000000e+00  0.0000000000000000e+00  0.0000000000000000e+00  0.0000000000000000e+00  0.0000000000000000e+00  0.0000000000000000e+00  0.0000000000000000e+00  0.0000000000000000e+00  0.0000000000000000e+00  0.0000000000000000e+00  0.0000000000000000e+00  0.0000000000000000e+00  0.0000000000000000e+00  0.0000000000000000e+00  0.0000000000000000e+00  0.0000000000000000e+00  0.0000000000000000e+00  0.0000000000000000e+00  0.0000000000000000e+00  0.0000000000000000e+00  0.0000000000000000e+00  0.0000000000000000e+00  0.0000000000000000e+00  0.0000000000000000e+00  0.0000000000000000e+00  0.0000000000000000e+00  0.0000000000000000e+00  0.0000000000000000e+00  0.0000000000000000e+00  0.0000000000000000e+00  0.0000000000000000e+00  0.0000000000000000e+00  0.0000000000000000e+00  0.0000000000000000e+00  0.0000000000000000e+00  0.0000000000000000e+00  0.0000000000000000e+00  0.0000000000000000e+00  0.0000000000000000e+00  0.0000000000000000e+00  0.0000000000000000e+00  0.0000000000000000e+00  0.0000000000000000e+00  0.0000000000000000e+00  0.0000000000000000e+00  0.0000000000000000e+00  0.0000000000000000e+00  0.0000000000000000e+00  0.0000000000000000e+00  0.0000000000000000e+00  0.0000000000000000e+00  0.0000000000000000e+00  0.0000000000000000e+00  0.0000000000000000e+00  0.0000000000000000e+00  0.0000000000000000e+00  0.0000000000000000e+00  0.0000000000000000e+00  0.0000000000000000e+00  0.0000000000000000e+00  0.0000000000000000e+00  0.0000000000000000e+00  0.0000000000000000e+00  0.0000000000000000e+00  0.0000000000000000e+00  0.0000000000000000e+00  0.0000000000000000e+00  0.0000000000000000e+00  0.0000000000000000e+00  0.0000000000000000e+00  0.0000000000000000e+00  0.0000000000000000e+00  0.0000000000000000e+00  0.0000000000000000e+00  0.0000000000000000e+00  0.0000000000000000e+00  0.0000000000000000e+00  0.0000000000000000e+00  0.0000000000000000e+00  0.0000000000000000e+00  0.0000000000000000e+00  0.0000000000000000e+00  0.0000000000000000e+00  0.0000000000000000e+00  0.0000000000000000e+00  0.0000000000000000e+00  0.0000000000000000e+00  0.0000000000000000e+00  0.0000000000000000e+00  0.0000000000000000e+00  0.0000000000000000e+00  0.0000000000000000e+00  0.0000000000000000e+00  0.0000000000000000e+00  0.0000000000000000e+00  0.0000000000000000e+00  0.0000000000000000e+00  0.0000000000000000e+00  0.0000000000000000e+00  0.0000000000000000e+00  0.0000000000000000e+00  0.0000000000000000e+00  0.0000000000000000e+00  0.0000000000000000e+00  0.0000000000000000e+00  0.0000000000000000e+00  0.0000000000000000e+00  0.0000000000000000e+00  0.0000000000000000e+00  0.0000000000000000e+00  0.0000000000000000e+00  0.0000000000000000e+00  0.0000000000000000e+00  0.0000000000000000e+00  0.0000000000000000e+00  0.0000000000000000e+00  0.0000000000000000e+00  0.0000000000000000e+00  0.0000000000000000e+00  0.0000000000000000e+00  0.0000000000000000e+00  0.0000000000000000e+00  0.0000000000000000e+00  0.0000000000000000e+00  0.0000000000000000e+00  0.0000000000000000e+00  0.0000000000000000e+00  0.0000000000000000e+00  0.0000000000000000e+00  0.0000000000000000e+00  0.0000000000000000e+00  0.0000000000000000e+00  0.0000000000000000e+00  0.0000000000000000e+00  0.0000000000000000e+00  0.0000000000000000e+00  0.0000000000000000e+00  0.0000000000000000e+00  0.0000000000000000e+00  0.0000000000000000e+00  0.0000000000000000e+00  0.0000000000000000e+00  0.0000000000000000e+00  0.0000000000000000e+00  0.0000000000000000e+00  0.0000000000000000e+00  0.0000000000000000e+00  0.0000000000000000e+00  0.0000000000000000e+00  0.0000000000000000e+00  0.0000000000000000e+00  0.0000000000000000e+00  0.0000000000000000e+00  0.0000000000000000e+00  0.0000000000000000e+00  0.0000000000000000e+00  0.0000000000000000e+00  0.0000000000000000e+00  0.0000000000000000e+00  0.0000000000000000e+00  0.0000000000000000e+00  0.0000000000000000e+00  0.0000000000000000e+00  0.0000000000000000e+00  0.0000000000000000e+00  0.0000000000000000e+00  0.0000000000000000e+00  0.0000000000000000e+00  0.0000000000000000e+00  0.0000000000000000e+00  0.0000000000000000e+00  0.0000000000000000e+00  0.0000000000000000e+00  0.0000000000000000e+00  0.0000000000000000e+00  0.0000000000000000e+00  0.0000000000000000e+00  0.0000000000000000e+00  0.0000000000000000e+00  0.0000000000000000e+00  0.0000000000000000e+00  0.0000000000000000e+00  4.7439897325087382e+63  2.4105674813364493e+58  -1.7729710456908839e+59  8.6216728713117133e+59  3.5751940115800294e+59  3.9349398106567492e+58  -1.3742664687095980e+56  5.7985768975624999e+54  -1.8472978293154196e+54  -5.8101326892934102e+52  -2.1234005563653575e+54  -3.4903436881390247e+61  5.2954124717654496e+53  8.5614204917859119e+52  -2.2228948723432960e+64  2.8098797545348344e+64  -5.2426380201592487e+52  -3.1558456130353748e+52  1.2374098467624466e+52  -2.4804988951764973e+52  6.0291478765186543e+51  -1.2702549347979067e+52  -4.0386603627130144e+50  -3.2504942775745190e+61  -5.5245976402024049e+62  2.8047653168508951e+63  -8.2479955990575327e+52  -6.8406183460962741e+50  -5.8904400403378766e+51  9.8266947248833346e+59  -9.4334648967262166e+50  -1.4999056879191846e+64  1.0467523193746245e+65  1.7302069487334824e+61  -1.0039904525978130e+52  -2.8127131311209732e+49  9.3950248850365060e+48  1.4997661514741944e+50  -9.1089430460361660e+49  1.3965981415892700e+58  -1.4783333425341092e+59  -4.3767269293345659e+56  -7.3073339205507424e+56  1.5546239090195410e+64  -1.4687104388340766e+49  5.1613475968001530e+49  -3.1101920436648884e+49  -2.5343345096114959e+49  6.1248967233494385e+56  -4.8095152480436085e+56  -7.8765508490537928e+54  8.4670830109397658e+56  -1.3675245077100638e+57  -2.8990220480263243e+59  3.2591604582559463e+50  -7.8609822212606791e+63  1.3407050340635492e+49  4.8903322194564352e+48  1.1517822612410768e+61  -1.4816711571027857e+49  6.6994799893511138e+48  -2.3771812589192603e+54  1.5704680763865557e+49  -4.3501392446233750e+48  -6.3668296263335624e+63  4.7584629020755604e+64  1.5522712453600369e+63  -1.7396274089630527e+59  3.5246071100048035e+62  -8.2976549735431843e+61  4.4780758990911999e+62  -1.6600340768100898e+57  5.4594553042819559e+55  -1.0149016032146431e+56  -3.8718740727015210e+54  1.7831815156936024e+62  -3.9600981902909220e+48  -2.3187114727428324e+60  4.5058170944611237e+62  4.0185269052668133e+55  -6.4258090033697515e+48  -1.9442249040178146e+61  5.2114102076457487e+47  2.5647715061842297e+48  -5.4825222323973646e+47  7.0887283235012446e+65  3.3940895456678398e+48  3.0684721315041705e+47  -3.0875623985479357e+48  3.8528498207924006e+62  3.4190266593530918e+53  5.9865218255607246e+48  -2.0326237791343454e+55  4.3641283044916667e+46  1.3705655685894595e+54  9.7002426566507777e+64  -2.3101475103057920e+47  -3.2841498653894810e+48  -4.5692200528655875e+53  1.7289552354388587e+53  2.5542722796165311e+55  1.9300613379250211e+54  5.2521127529118973e+48  1.7406507897978942e+59  -4.6449163449985686e+57  -4.3077945154554915e+56  1.9019238218126322e+60  2.5119216674460012e+54  -8.3692123063518998e+53  8.3040054099078782e+46  4.4706748729142935e+59  -1.8124501647669706e+48  -2.0171962188094240e+46  3.8794474629278413e+56  -1.2271617433479491e+56  -1.0048354133458912e+52  -5.6565530338769718e+47  -4.5027992541818403e+47  1.1483698093582339e+47  6.7112357725256333e+64  4.0325467297446195e+58  2.2931860239442552e+51  5.1525016202149484e+63  -4.0701504969082720e+48  -7.8882381764005706e+52  -3.2757688975539173e+54  -5.3653659689417804e+46  1.8727741281964743e+47  4.0067793707897617e+51  -5.4135474888216336e+51  -1.0181949491075271e+54  6.7092737716562381e+52  -3.9519197757901721e+56  -7.1616970846926742e+59  -6.2315712639799638e+55  -3.1470265791823273e+53  2.0997433809923934e+48  2.0202169127817476e+66  2.0252004663672930e+62  -3.2940245342652903e+63  -3.3138830807460215e+63  -5.6320947995660916e+65  -2.9934149389152576e+51  4.1467075892065474e+61  -3.4367533511868166e+56  -2.7096267638640809e+51  1.1923949866670660e+50  -3.1444996050783785e+63  1.0629138644112173e+66  -2.9051108853652535e+54  -7.9869766509145777e+45  -8.6907721080183439e+55  1.3063883666257689e+62  6.8343045662797422e+50  1.1667842928577160e+51  -1.7927269162575027e+49  2.1172095290728214e+46  8.0586098891126684e+51  1.0225360137173657e+47  -1.3194328758482736e+46  1.5810277580588882e+46  5.9307242757360232e+50  -3.5461412232045335e+54  -9.3258303195069004e+46  -4.2208586683450800e+50  1.0876510833880468e+58  -1.9661711026411929e+52  -9.9862073935650551e+48  4.8971644129369033e+46  -1.3232940519365016e+51  -5.7253686420387323e+57  4.5830068935712339e+63  1.0739297232244327e+49  2.2384836388164678e+61  4.1671111765861603e+46  2.6147493650407573e+59  1.9675007989513857e+47  6.6063540941590934e+51  -1.5053387520669814e+47  -3.2446155613663492e+59  -2.2196926971719861e+50  -2.4778430086062513e+59  -1.3173764915547094e+56  1.0900457428608643e+66  -1.7277067034242309e+46  4.5633289084586977e+56  -1.2346073250430519e+55  -1.1283868001851197e+59  7.1392466132573481e+46  3.0396680420166080e+49  5.5524674712395072e+46  -6.6384669619545524e+64  -2.4671065146176706e+47  1.9476658829695509e+46  1.7278329038670082e+59  -3.4495074207432001e+62  -2.8099981133458528e+51  6.9294729505306518e+51  2.5787157260310753e+58  -4.7730224290254677e+53  1.3250681681502692e+56  -1.6271316123728411e+57  -1.7626019913426575e+58  5.9327489918671626e+53  -1.1707695974394678e+56  3.9129521922687186e+51  -5.7555906431759290e+50  1.2203227672583553e+64  1.8949462059030586e+47  -3.8304293910795114e+51  -6.1498235583860210e+51  -2.8194988573030772e+64  9.3271648611928133e+61  -6.7247184240071152e+47  2.3863498339302249e+46  -8.0331572279998231e+51  -4.3736744835299426e+60  1.0953064539824189e+47  8.6337683008496871e+54  8.7396844944611086e+54  4.0221118898068900e+48  -1.1598633811401836e+54  5.5784997148081203e+60  -1.2981629185195394e+56  -1.5546064400962354e+54  -1.8881147008843230e+46  4.5095886719463643e+52  -5.2519272372001881e+46  4.9966181680904019e+54  2.0772980488549552e+46  5.6937353892963542e+46  -2.5572352661161851e+46  -8.7465071681252434e+45  -2.0663294676043583e+49  6.9900193851903666e+45  2.9992065971951965e+58  7.6468771705992627e+55  1.2768982030590587e+50  1.2131694151011792e+50  3.5678032232324458e+63  2.2614809863859230e+63  -3.9173045893205836e+55  -3.2178214345531492e+55  4.7239741836950558e+46  -5.4071749472757794e+58  2.1182320285659783e+46  8.1537040861962226e+45  -5.0353947372853744e+44  4.1625480586461910e+60  -1.6945135048508002e+58  3.5095359698329327e+55  -3.3419635449235383e+57  -6.2391515684919705e+64  4.3095364637477461e+64  9.9927230158783773e+48  2.5111564976477319e+61  3.0101154158785607e+52  1.8518103931656109e+58  3.1788388030557751e+46  2.3397116299879912e+45  1.2835803178417938e+47  6.6745367844680162e+53  1.6911640881133359e+49  3.1702791103106390e+57  8.6794758475742114e+59  7.6722577931267109e+60  -5.5750563553232008e+49  -4.5036832069307464e+45  5.6166906151881986e+46  2.5784833362850688e+55  5.0402099817142689e+44  9.2030459506749003e+61  -9.6446445602138634e+59  6.8361766102500726e+52  -9.8196882483819853e+50  5.1322126885669341e+52  2.0265418914533688e+62  -1.1286070402811324e+63  -1.8728287105588102e+61  -3.8530175440862826e+60  7.8569836618074099e+62  -1.4577349647162807e+63  3.8942637614662570e+65  -8.2446644770760804e+54  1.0552103884460053e+54  4.0096393314825570e+51  -1.6472482634121131e+64  2.6331524578622170e+47  -8.8737047651973001e+49  -1.9639936035243257e+61  1.1762894548827170e+65  7.7771373181927585e+59  -1.1622938837017168e+56  9.1503745207887358e+57  -1.1984721335565865e+65  -1.6705352378266955e+47  1.9630190282704107e+59  1.9172787527450188e+46  1.2605806221280645e+46  -3.1299346192722834e+46  -1.2151800972969415e+63  -1.1670886376959343e+63  2.2709127228033215e+62  -8.2644087631943539e+63  7.8952462809290740e+54  -1.2537575954248569e+55  -7.7827343750944824e+52  -3.5969134707542317e+56  -6.0452685712549186e+55  -8.8241676186211178e+54  -1.8568000324803077e+59  8.7594717683588777e+55  -3.3481356991156293e+62  -3.5273895683231728e+51  -6.3367008351211157e+63  2.0775114796354054e+63  3.2992798273146747e+56  -1.7495195697466193e+52  3.8432684673592573e+53  6.1595219180061041e+44  -1.7050027094497828e+51  -2.5655125223234921e+51  -6.0361124417156283e+46  -8.4352093726934319e+61  2.3654916737524522e+45  1.7724450715377998e+46  2.8988211541857559e+48  2.1868241888573175e+61  3.4013601022280685e+61  2.3179847031785118e+64  -8.6946647115837087e+45  -4.7349637309908580e+52  6.1197825821043806e+52  1.4839423536212618e+59  8.3594179125531236e+60  -4.3166344706928874e+52  2.2025677828671308e+59  -3.6188793238884389e+62  -1.8754675677891321e+65  4.4900891106583409e+52  -9.2818073953096507e+49  -1.9521943097072848e+58  8.3104978344702655e+48  -3.4651231390021183e+48  4.1336104871770236e+53  -4.6805457945566277e+44  1.4490093074312634e+51  -4.1837329842688504e+51  -5.6497185336378376e+45  -2.3266056498519752e+53  -6.5706700176236363e+54  -8.3504641224127653e+46  -2.7205563367743372e+48  -2.1175169093127723e+45  -6.3805137646286762e+50  -6.0625054603941381e+49  9.0426530586238276e+55  8.1338983122334972e+64  -7.8192088677042162e+47  6.1831651227653096e+63  3.3908455393916065e+63  -4.4588747568043257e+50  1.0719591501537115e+47  -1.8381686747915423e+56  3.4553134211437197e+48  -1.0056060243287481e+64  8.2303604038537055e+48  6.9761319260863524e+51  1.0245608757965413e+64  1.9200506048780451e+50  9.4732359927386172e+45  -6.4071161488200190e+46  -2.7345322675820627e+49  1.1985603714469636e+62  -5.8587876692413814e+60  -1.4933865913276462e+53  -3.3976162993910874e+47  8.9661266284431011e+63  -9.3145438844679055e+54  -1.9052834068184787e+46  1.4157141146815619e+58  1.2474696019694127e+46  5.4955501954205660e+48  -1.5414937034678304e+59  3.6275322021748051e+46  -3.5226339282792775e+64  3.6056503576287481e+46  2.7503549435556286e+49  -3.3631391567902279e+45  -4.4446708117462042e+60  3.0710624312508889e+56  1.6464758758806852e+53  5.5356521529458400e+57  -5.9568347649030596e+44  -9.4550736616630249e+49  -1.9025334732330907e+60  -2.6830352518156953e+47  1.7182798352002156e+57  1.0114074379262046e+52  -7.9311469776463623e+44  -3.4529410874840296e+45  -1.0356419587385070e+58  -1.8979761185528372e+48  -8.5719924964749271e+58  1.7414858863931410e+52  8.4082222990112395e+58  5.9721248419305124e+56  -1.4997930200737018e+45  -1.1448992074358595e+49  -2.2892887346651245e+50  -1.7784602557054819e+49  1.9185401019658745e+49  -1.4556781637472316e+61  1.7991334349348045e+62  -8.5325895490401905e+64  -2.0320827060608328e+61  1.4038464706974226e+49  6.4998870452173316e+62  5.2958859083869073e+60  -1.1696333569232520e+46  -2.8995268128671649e+45  7.3011989851220879e+45  3.2403823012226735e+55  6.0187199326625298e+54  -1.1119366302578908e+52  9.9018927974358435e+61  2.1200746086610953e+53  1.0323876958683616e+46  3.8424869376628389e+44  2.1588360131204547e+46  -8.2342871059517254e+54  1.5495692748380406e+49  -3.3836928144568027e+51  6.3612882789613142e+47  -2.1051930523991664e+48  1.0934412622508443e+49  -1.5999990602753598e+55  1.4854503380393572e+49  2.5494739088022573e+59  6.5652669595777894e+56  4.7765587693765312e+57  4.3168090891927812e+55  6.7392526285634095e+57  -5.7257768609114531e+60  7.9972405945303931e+48  1.6383027386292327e+60  3.1288085449220113e+50  -4.8244880419546613e+65  -1.5867358718995753e+54  -1.7873578108374596e+59  -4.1799584442967916e+57  5.0696006869131653e+63  -4.5249970368557133e+49  2.8540698065631620e+45  2.1292857851983145e+44  3.0617283872258987e+64  -2.5908654433070263e+53  -2.5725463874206331e+58  1.4898853444382109e+58  -1.6901410892220672e+48  5.7204027434852098e+54  3.5613233935603292e+45  -7.6696725742006143e+64  1.6738414971001972e+64  2.6365761800648891e+60  -2.6054014065755137e+51  7.0960006053670601e+49  -3.8021878481982559e+49  -2.1948315302733326e+53  5.1831571705054725e+53  -1.2566028645002015e+57  -1.2065729071777902e+48  -2.1686562901375143e+59  -1.2081311710578205e+58  -2.3688079041338035e+51  -4.3425029436803577e+64  5.3744229881474677e+50  1.9765051520159046e+58  7.6257682172144375e+53  -3.5196466291497387e+55  9.6609456929066031e+53  6.8890511293904927e+50  -9.1718694706850536e+44  7.5188097401141683e+48  -4.1047456375092367e+44  -3.9792731493560924e+47  2.2765020524832455e+46  1.4746396436954610e+62  -2.7537540493554179e+50  -3.4911309741280837e+54  1.8460205316535547e+51  1.2928897523543636e+61  5.6405854323320869e+57  -1.2481285229105204e+62  -4.9473059898237788e+46  -1.4283518257580268e+61  -7.3406656436928272e+45  -2.2166135295268650e+44  3.8436382933449275e+46  5.0953731956799102e+57  -2.2952830667028287e+45  4.7058109035415690e+46  -9.1734359600635241e+57  2.2593077736983113e+57  -6.610574013396143