<?xml version="1.0"?>
<VTKFile type="UnstructuredGrid"  version="0.1"  >
<UnstructuredGrid>
<Piece  NumberOfPoints="20054" NumberOfCells="39478">
<Points>
<DataArray  type="Float64"  NumberOfComponents="3"  format="ascii">1 0 0  0.9997998037428526 0.02000880895389431 0  0.9991992951284931 0.04000960653046352 0  0.9981987145960756 0.05999438456007805 0  0.9967984627705549 0.07995514128721501 0  0.9949991003022806 0.09988388457430118 0  0.9928013476425149 0.1197726351017051 0  0.9902060847549715 0.139613429562597 0  0.987214350763483 0.1593983238513969 0  0.9838273435359444 0.1791193962445356 0  0.9800464192046954 0.198768750572253 0  0.9758730916235354 0.2183385193801655 0  0.9713090317615876 0.237820867079336 0  0.9663560670342555 0.2572079930835849 0  0.9610161805715396 0.2764921349327862 0  0.9552915104240066 0.2956655714008991 0  0.9491843487067304 0.3147206255874884 0  0.9426971406815462 0.3336496679914983 0  0.9358324837779861 0.3524451195660473 0  0.9285931265532873 0.3710994547530225 0  0.9209819675918909 0.3896052044962556 0  0.9130020543448703 0.4079549592320781 0  0.9046565819097542 0.4261413718560547 0  0.8959488917512338 0.4441571606647087 0  0.8868824703632656 0.4619951122710622 0  0.8774609478731046 0.4796480844928215 0  0.8676880965878291 0.4971090092120542 0  0.8575678294839372 0.5143708952052096 0  0.8471041986406199 0.5314268309423539 0  0.8363013936173391 0.5482699873544935 0  0.8251637397763597 0.5648936205678837 0  0.8136956965509062 0.5812910746042258 0  0.8019018556596399 0.5974557840456699 0  0.7897869392681683 0.6133812766635599 0  0.777355798098326 0.6290611760098652 0  0.7646134094859813 0.6444892039702628 0  0.7515648753881492 0.6596591832778468 0  0.7382154203402046 0.6745650399864606 0  0.7245703893640189 0.6892008059026586 0  0.7106352458278521 0.7035606209753273 0  0.6964155692588616 0.7176387356420051 0  0.6819170531091018 0.7314295131309636 0  0.6671455024759069 0.7449274317181303 0  0.6521068317775753 0.7581270869379442 0  0.6368070623852795 0.7710231937472638 0  0.6212523202121545 0.7836105886414595 0  0.6054488332605282 0.795884231721841 0  0.5894029291282759 0.8078392087135958 0  0.5731210324752972 0.8194707329334278 0  0.5566096624511305 0.8307741472061095 0  0.5398754300847343 0.8417449257291802 0  0.5229250356374803 0.8523786758850435 0  0.5057652659204196 0.8626711399997378 0  0.4884029915768944 0.8726181970476778 0  0.4708451643315825 0.8822158643016828 0  0.45309881420708 0.8914602989276292 0  0.4351710467091336 0.9003477995230937 0  0.4170690399816468 0.9088748075993677 0  0.398800041932607 0.9170379090062476 0  0.3803713673320772 0.9248338352990368 0  0.3617903948834157 0.9322594650472057 0  0.3430645642688987 0.9393118250841893 0  0.3242013731709288 0.9459880916978206 0  0.3052083742700172 0.952285591760924 0  0.2860931722207478 0.9582018038016155 0  0.2668634206069304 0.963734359012881 0  0.2475268188771628 0.9688810422010291 0  0.2280911092620296 0.9736397926726377 0  0.2085640736741707 0.9780087050596407 0  0.1889535305924618 0.9819860300822225 0  0.1692673319315541 0.9855701752492174 0  0.1495133598980264 0.9887597054957302 0  0.1296995238344084 0.9915533437577263 0  0.1098337570523395 0.9939499714833577 0  0.08992401365612977 0.9959486290808237 0  0.06997826535799723 0.9975485163025836 0  0.05000449828625179 0.9987489925657699 0  0.03001070978771124 0.9995495772086734 0  0.01000490522562346 0.9999499496831961 0  -0.01000490522562333 0.9999499496831961 0  -0.03001070978771133 0.9995495772086734 0  -0.05000449828625144 0.9987489925657699 0  -0.06997826535799688 0.9975485163025836 0  -0.08992401365612987 0.9959486290808237 0  -0.1098337570523394 0.9939499714833577 0  -0.1296995238344082 0.9915533437577263 0  -0.1495133598980262 0.9887597054957303 0  -0.1692673319315537 0.9855701752492174 0  -0.1889535305924614 0.9819860300822226 0  -0.2085640736741705 0.9780087050596407 0  -0.2280911092620295 0.9736397926726377 0  -0.2475268188771627 0.9688810422010291 0  -0.2668634206069302 0.9637343590128811 0  -0.2860931722207475 0.9582018038016156 0  -0.3052083742700173 0.9522855917609239 0  -0.3242013731709289 0.9459880916978205 0  -0.3430645642688986 0.9393118250841894 0  -0.3617903948834154 0.9322594650472058 0  -0.380371367332077 0.924833835299037 0  -0.3988000419326071 0.9170379090062476 0  -0.4170690399816465 0.9088748075993678 0  -0.4351710467091335 0.9003477995230939 0  -0.4530988142070799 0.8914602989276292 0  -0.4708451643315824 0.8822158643016829 0  -0.4884029915768945 0.8726181970476778 0  -0.5057652659204197 0.8626711399997378 0  -0.5229250356374801 0.8523786758850437 0  -0.5398754300847342 0.8417449257291804 0  -0.5566096624511303 0.8307741472061098 0  -0.5731210324752971 0.8194707329334279 0  -0.589402929128276 0.8078392087135957 0  -0.6054488332605281 0.7958842317218411 0  -0.6212523202121542 0.7836105886414597 0  -0.6368070623852793 0.7710231937472639 0  -0.652106831777575 0.7581270869379444 0  -0.6671455024759069 0.7449274317181304 0  -0.6819170531091018 0.7314295131309636 0  -0.6964155692588616 0.7176387356420052 0  -0.7106352458278521 0.7035606209753273 0  -0.7245703893640187 0.6892008059026588 0  -0.7382154203402043 0.6745650399864608 0  -0.751564875388149 0.6596591832778469 0  -0.7646134094859813 0.6444892039702628 0  -0.7773557980983258 0.6290611760098654 0  -0.7897869392681683 0.6133812766635599 0  -0.8019018556596398 0.59745578404567 0  -0.8136956965509062 0.5812910746042258 0  -0.8251637397763595 0.5648936205678839 0  -0.836301393617339 0.5482699873544935 0  -0.8471041986406197 0.5314268309423542 0  -0.8575678294839372 0.5143708952052097 0  -0.8676880965878292 0.497109009212054 0  -0.8774609478731045 0.4796480844928216 0  -0.8868824703632656 0.4619951122710621 0  -0.8959488917512338 0.4441571606647088 0  -0.904656581909754 0.426141371856055 0  -0.9130020543448703 0.4079549592320783 0  -0.920981967591891 0.3896052044962555 0  -0.9285931265532872 0.3710994547530226 0  -0.9358324837779861 0.3524451195660473 0  -0.9426971406815462 0.3336496679914984 0  -0.9491843487067303 0.3147206255874888 0  -0.9552915104240065 0.2956655714008993 0  -0.9610161805715396 0.2764921349327862 0  -0.9663560670342555 0.2572079930835851 0  -0.9713090317615876 0.2378208670793361 0  -0.9758730916235353 0.2183385193801658 0  -0.9800464192046954 0.198768750572253 0  -0.9838273435359444 0.1791193962445354 0  -0.987214350763483 0.159398323851397 0  -0.9902060847549714 0.1396134295625972 0  -0.9928013476425149 0.1197726351017052 0  -0.9949991003022804 0.09988388457430147 0  -0.9967984627705549 0.07995514128721509 0  -0.9981987145960756 0.05999438456007793 0  -0.9991992951284931 0.04000960653046362 0  -0.9997998037428526 0.02000880895389464 0  -1 1.224646799147353e-16 0  -0.9997998037428526 -0.0200088089538944 0  -0.9991992951284931 -0.04000960653046338 0  -0.9981987145960756 -0.05999438456007812 0  -0.9967984627705549 -0.07995514128721484 0  -0.9949991003022806 -0.09988388457430078 0  -0.9928013476425149 -0.1197726351017049 0  -0.9902060847549715 -0.1396134295625965 0  -0.9872143507634831 -0.1593983238513963 0  -0.9838273435359444 -0.1791193962445356 0  -0.9800464192046953 -0.1987687505722532 0  -0.9758730916235354 -0.2183385193801655 0  -0.9713090317615876 -0.2378208670793363 0  -0.9663560670342556 -0.2572079930835848 0  -0.9610161805715396 -0.276492134932786 0  -0.9552915104240066 -0.2956655714008991 0  -0.9491843487067305 -0.3147206255874881 0  -0.9426971406815464 -0.3336496679914978 0  -0.9358324837779862 -0.3524451195660471 0  -0.9285931265532875 -0.371099454753022 0  -0.9209819675918909 -0.3896052044962557 0  -0.9130020543448704 -0.407954959232078 0  -0.9046565819097541 -0.4261413718560548 0  -0.8959488917512338 -0.4441571606647086 0  -0.8868824703632655 -0.4619951122710623 0  -0.8774609478731046 -0.4796480844928214 0  -0.8676880965878293 -0.4971090092120538 0  -0.8575678294839373 -0.5143708952052095 0  -0.84710419864062 -0.5314268309423537 0  -0.8363013936173395 -0.5482699873544929 0  -0.8251637397763596 -0.5648936205678838 0  -0.8136956965509061 -0.5812910746042259 0  -0.8019018556596399 -0.5974557840456699 0  -0.7897869392681682 -0.61338127666356 0  -0.777355798098326 -0.6290611760098652 0  -0.7646134094859816 -0.6444892039702625 0  -0.7515648753881492 -0.6596591832778468 0  -0.7382154203402048 -0.6745650399864603 0  -0.7245703893640192 -0.6892008059026583 0  -0.7106352458278522 -0.7035606209753272 0  -0.6964155692588621 -0.7176387356420046 0  -0.6819170531091017 -0.7314295131309637 0  -0.667145502475907 -0.7449274317181303 0  -0.6521068317775756 -0.758127086937944 0  -0.6368070623852792 -0.7710231937472641 0  -0.6212523202121544 -0.7836105886414596 0  -0.6054488332605283 -0.795884231721841 0  -0.5894029291282762 -0.8078392087135956 0  -0.5731210324752977 -0.8194707329334274 0  -0.5566096624511304 -0.8307741472061095 0  -0.5398754300847344 -0.8417449257291802 0  -0.5229250356374798 -0.8523786758850437 0  -0.5057652659204195 -0.8626711399997379 0  -0.4884029915768943 -0.872618197047678 0  -0.4708451643315825 -0.8822158643016828 0  -0.4530988142070805 -0.8914602989276289 0  -0.4351710467091333 -0.900347799523094 0  -0.4170690399816467 -0.9088748075993677 0  -0.3988000419326073 -0.9170379090062475 0  -0.3803713673320777 -0.9248338352990366 0  -0.3617903948834162 -0.9322594650472055 0  -0.3430645642688988 -0.9393118250841893 0  -0.3242013731709283 -0.9459880916978207 0  -0.3052083742700169 -0.9522855917609241 0  -0.2860931722207477 -0.9582018038016155 0  -0.2668634206069305 -0.963734359012881 0  -0.2475268188771631 -0.968881042201029 0  -0.2280911092620301 -0.9736397926726376 0  -0.2085640736741706 -0.9780087050596407 0  -0.1889535305924619 -0.9819860300822225 0  -0.1692673319315544 -0.9855701752492173 0  -0.1495133598980269 -0.9887597054957302 0  -0.1296995238344092 -0.9915533437577262 0  -0.1098337570523396 -0.9939499714833577 0  -0.08992401365612945 -0.9959486290808237 0  -0.06997826535799691 -0.9975485163025836 0  -0.05000449828625168 -0.9987489925657699 0  -0.030010709787
[...]
<PointData  Scalars="Displacement"> 
<DataArray  type="Float64"  Name="Displacement"  format="ascii">0.0000000000000000e+00  0.0000000000000000e+00  0.0000000000000000e+00  0.0000000000000000e+00  0.0000000000000000e+00  0.0000000000000000e+00  0.0000000000000000e+00  0.0000000000000000e+00  0.0000000000000000e+00  0.0000000000000000e+00  0.0000000000000000e+00  0.0000000000000000e+00  0.0000000000000000e+00  0.0000000000000000e+00  0.0000000000000000e+00  0.0000000000000000e+00  0.0000000000000000e+00  0.0000000000000000e+00  0.0000000000000000e+00  0.0000000000000000e+00  0.0000000000000000e+00  0.0000000000000000e+00  0.0000000000000000e+00  0.0000000000000000e+00  0.0000000000000000e+00  0.0000000000000000e+00  0.0000000000000000e+00  0.0000000000000000e+00  0.0000000000000000e+00  0.0000000000000000e+00  0.0000000000000000e+00  0.0000000000000000e+00  0.0000000000000000e+00  0.0000000000000000e+00  0.0000000000000000e+00  0.0000000000000000e+00  0.0000000000000000e+00  0.0000000000000000e+00  0.0000000000000000e+00  0.0000000000000000e+00  0.0000000000000000e+00  0.0000000000000000e+00  0.0000000000000000e+00  0.0000000000000000e+00  0.0000000000000000e+00  0.0000000000000000e+00  0.0000000000000000e+00  0.0000000000000000e+00  0.0000000000000000e+00  0.0000000000000000e+00  0.0000000000000000e+00  0.0000000000000000e+00  0.0000000000000000e+00  0.0000000000000000e+00  0.0000000000000000e+00  0.0000000000000000e+00  0.0000000000000000e+00  0.0000000000000000e+00  0.0000000000000000e+00  0.0000000000000000e+00  0.0000000000000000e+00  0.0000000000000000e+00  0.0000000000000000e+00  0.0000000000000000e+00  0.0000000000000000e+00  0.0000000000000000e+00  0.0000000000000000e+00  0.0000000000000000e+00  0.0000000000000000e+00  0.0000000000000000e+00  0.0000000000000000e+00  0.0000000000000000e+00  0.0000000000000000e+00  0.0000000000000000e+00  0.0000000000000000e+00  0.0000000000000000e+00  0.0000000000000000e+00  0.0000000000000000e+00  0.0000000000000000e+00  0.0000000000000000e+00  0.0000000000000000e+00  0.0000000000000000e+00  0.0000000000000000e+00  0.0000000000000000e+00  0.0000000000000000e+00  0.0000000000000000e+00  0.0000000000000000e+00  0.0000000000000000e+00  0.0000000000000000e+00  0.0000000000000000e+00  0.0000000000000000e+00  0.0000000000000000e+00  0.0000000000000000e+00  0.0000000000000000e+00  0.0000000000000000e+00  0.0000000000000000e+00  0.0000000000000000e+00  0.0000000000000000e+00  0.0000000000000000e+00  0.0000000000000000e+00  0.0000000000000000e+00  0.0000000000000000e+00  0.0000000000000000e+00  0.0000000000000000e+00  0.0000000000000000e+00  0.0000000000000000e+00  0.0000000000000000e+00  0.0000000000000000e+00  0.0000000000000000e+00  0.0000000000000000e+00  0.0000000000000000e+00  0.0000000000000000e+00  0.0000000000000000e+00  0.0000000000000000e+00  0.0000000000000000e+00  0.0000000000000000e+00  0.0000000000000000e+00  0.0000000000000000e+00  0.0000000000000000e+00  0.0000000000000000e+00  0.0000000000000000e+00  0.0000000000000000e+00  0.0000000000000000e+00  0.0000000000000000e+00  0.0000000000000000e+00  0.0000000000000000e+00  0.0000000000000000e+00  0.0000000000000000e+00  0.0000000000000000e+00  0.0000000000000000e+00  0.0000000000000000e+00  0.0000000000000000e+00  0.0000000000000000e+00  0.0000000000000000e+00  0.0000000000000000e+00  0.0000000000000000e+00  0.0000000000000000e+00  0.0000000000000000e+00  0.0000000000000000e+00  0.0000000000000000e+00  0.0000000000000000e+00  0.0000000000000000e+00  0.0000000000000000e+00  0.0000000000000000e+00  0.0000000000000000e+00  0.0000000000000000e+00  0.0000000000000000e+00  0.0000000000000000e+00  0.0000000000000000e+00  0.0000000000000000e+00  0.0000000000000000e+00  0.0000000000000000e+00  0.0000000000000000e+00  0.0000000000000000e+00  0.0000000000000000e+00  0.0000000000000000e+00  0.0000000000000000e+00  0.0000000000000000e+00  0.0000000000000000e+00  0.0000000000000000e+00  0.0000000000000000e+00  0.0000000000000000e+00  0.0000000000000000e+00  0.0000000000000000e+00  0.0000000000000000e+00  0.0000000000000000e+00  0.0000000000000000e+00  0.0000000000000000e+00  0.0000000000000000e+00  0.0000000000000000e+00  0.0000000000000000e+00  0.0000000000000000e+00  0.0000000000000000e+00  0.0000000000000000e+00  0.0000000000000000e+00  0.0000000000000000e+00  0.0000000000000000e+00  0.0000000000000000e+00  0.0000000000000000e+00  0.0000000000000000e+00  0.0000000000000000e+00  0.0000000000000000e+00  0.0000000000000000e+00  0.0000000000000000e+00  0.0000000000000000e+00  0.0000000000000000e+00  0.0000000000000000e+00  0.0000000000000000e+00  0.0000000000000000e+00  0.0000000000000000e+00  0.0000000000000000e+00  0.0000000000000000e+00  0.0000000000000000e+00  0.0000000000000000e+00  0.0000000000000000e+00  0.0000000000000000e+00  0.0000000000000000e+00  0.0000000000000000e+00  0.0000000000000000e+00  0.0000000000000000e+00  0.0000000000000000e+00  0.0000000000000000e+00  0.0000000000000000e+00  0.0000000000000000e+00  0.0000000000000000e+00  0.0000000000000000e+00  0.0000000000000000e+00  0.0000000000000000e+00  0.0000000000000000e+00  0.0000000000000000e+00  0.0000000000000000e+00  0.0000000000000000e+00  0.0000000000000000e+00  0.0000000000000000e+00  0.0000000000000000e+00  0.0000000000000000e+00  0.0000000000000000e+00  0.0000000000000000e+00  0.0000000000000000e+00  0.0000000000000000e+00  0.0000000000000000e+00  0.0000000000000000e+00  0.0000000000000000e+00  0.0000000000000000e+00  0.0000000000000000e+00  0.0000000000000000e+00  0.0000000000000000e+00  0.0000000000000000e+00  0.0000000000000000e+00  0.0000000000000000e+00  0.0000000000000000e+00  0.0000000000000000e+00  0.0000000000000000e+00  0.0000000000000000e+00  0.0000000000000000e+00  0.0000000000000000e+00  0.0000000000000000e+00  0.0000000000000000e+00  0.0000000000000000e+00  0.0000000000000000e+00  0.0000000000000000e+00  0.0000000000000000e+00  0.0000000000000000e+00  0.0000000000000000e+00  0.0000000000000000e+00  0.0000000000000000e+00  0.0000000000000000e+00  0.0000000000000000e+00  0.0000000000000000e+00  0.0000000000000000e+00  0.0000000000000000e+00  0.0000000000000000e+00  0.0000000000000000e+00  0.0000000000000000e+00  0.0000000000000000e+00  0.0000000000000000e+00  0.0000000000000000e+00  0.0000000000000000e+00  0.0000000000000000e+00  0.0000000000000000e+00  0.0000000000000000e+00  0.0000000000000000e+00  0.0000000000000000e+00  0.0000000000000000e+00  0.0000000000000000e+00  0.0000000000000000e+00  0.0000000000000000e+00  0.0000000000000000e+00  0.0000000000000000e+00  0.0000000000000000e+00  0.0000000000000000e+00  0.0000000000000000e+00  0.0000000000000000e+00  0.0000000000000000e+00  0.0000000000000000e+00  0.0000000000000000e+00  0.0000000000000000e+00  0.0000000000000000e+00  0.0000000000000000e+00  0.0000000000000000e+00  0.0000000000000000e+00  0.0000000000000000e+00  0.0000000000000000e+00  0.0000000000000000e+00  0.0000000000000000e+00  0.0000000000000000e+00  0.0000000000000000e+00  0.0000000000000000e+00  0.0000000000000000e+00  0.0000000000000000e+00  0.0000000000000000e+00  0.0000000000000000e+00  0.0000000000000000e+00  0.0000000000000000e+00  0.0000000000000000e+00  0.0000000000000000e+00  0.0000000000000000e+00  0.0000000000000000e+00  0.0000000000000000e+00  0.0000000000000000e+00  0.0000000000000000e+00  0.0000000000000000e+00  0.0000000000000000e+00  0.0000000000000000e+00  0.0000000000000000e+00  0.0000000000000000e+00  0.0000000000000000e+00  0.0000000000000000e+00  0.0000000000000000e+00  0.0000000000000000e+00  0.0000000000000000e+00  0.0000000000000000e+00  0.0000000000000000e+00  0.0000000000000000e+00  -2.3852558404426716e-01  3.2221279918877965e-02  3.2204843416042454e-02  3.2181469675178001e-02  3.2255448693407282e-02  3.2237188828324534e-02  3.0132989749286840e-02  2.2607469695750313e-02  2.1012899982334198e-02  1.8069340948833151e-02  1.8061294555977832e-02  -5.4414140989924809e-02  1.4401835443329580e-02  1.4398925513355270e-02  -6.5336156576009802e-02  -7.3978828235995803e-02  1.1289962580792599e-02  1.1557257925264195e-02  1.1132758378071969e-02  1.1020759668426229e-02  1.0404072770744422e-02  1.0364153437069284e-02  1.0548115946611952e-02  9.9445253228925903e-03  9.9473059948812122e-03  -1.1102707924851581e-01  1.1998897070640382e-02  8.2282125877384503e-03  8.7214121558347492e-03  3.0313532239540159e-02  8.6010226061294087e-03  -8.4997756187268653e-02  -1.4537885072325257e-01  3.1675169506413768e-02  7.6742382529447198e-03  6.5619000292046559e-03  6.3902973880534397e-03  6.2889343647161778e-03  6.2645230152298644e-03  3.1433799878407158e-02  3.0980441031615052e-02  3.0368990622063441e-02  3.0123037529912577e-02  -1.6683106402248968e-01  5.9542569251863960e-03  5.7819436027236951e-03  5.5859319698599577e-03  5.5879653955059104e-03  2.7729997213227948e-02  2.8440629182191840e-02  1.6516377181483327e-02  3.1575750765310766e-02  2.9534688987834637e-02  2.9154928900285808e-02  4.9399987646493691e-03  -1.7598766175680347e-01  5.7048814362013946e-03  4.9445127348107668e-03  -3.4828172824830909e-02  4.8008777309321805e-03  4.8642208825560047e-03  1.8508883054677454e-02  4.7342265326096146e-03  4.9919937113595278e-03  -3.4706835515539484e-02  -1.1365382269347724e-01  6.2746807836194900e-03  2.9240845549197442e-02  3.9607429153338562e-03  -1.9250141526185510e-01  -3.6103415319288956e-02  2.8026512022600779e-02  2.3342143262757811e-02  2.4686144881794724e-02  2.4776372611370810e-02  -1.3516050968303417e-02  4.6357823710973696e-03  1.7391400902239389e-02  -1.4853674374966869e-02  1.9464632154104912e-02  4.3343282875381740e-03  1.2111524869625662e-02  4.2117248092026667e-03  4.2714837272901122e-03  4.0726668059499491e-03  -1.9980821636407534e-01  4.1675675604296164e-03  3.9904047429894680e-03  3.9935724516782650e-03  2.5943314845870741e-03  1.6864626063497652e-02  3.8589949550848603e-03  2.3604720159497914e-02  3.8195071940230817e-03  1.6945243643188123e-02  -1.7181747694551988e-01  4.1814311055781732e-03  3.7269134170671999e-03  1.6021729358736039e-02  1.4065602006940320e-02  2.0286748007196639e-02  1.6030257382113028e-02  3.7205918230091921e-03  2.6684847930555710e-02  3.2111207628469640e-02  3.2114550246884116e-02  2.3289294790325640e-02  1.4077813994136049e-02  1.5301359091214248e-02  3.3553277531940999e-03  2.1023512845367038e-02  3.3237792944420682e-03  3.4676697155357808e-03  2.7277593560016498e-02  2.6175771499545388e-02  1.3631834128087814e-02  3.2098363382314730e-03  3.6233915175681928e-03  3.5547389033773794e-03  -1.9290323776056786e-01  2.5684746951672600e-02  9.3849737948749918e-03  -7.0889263351359394e-02  4.8643676103471570e-03  1.1954988523083977e-02  1.7941770602566395e-02  3.5247584039662535e-03  3.1025783916421683e-03  1.1403813601763341e-02  1.1613366319899284e-02  1.8262875248854209e-02  1.2137485438885959e-02  2.3307737441827910e-02  2.9613474397373794e-02  2.7798080366019585e-02  1.4119785568459145e-02  3.3910365461933267e-03  -8.0009251489668518e-02  1.0607449102809578e-03  -4.3001483533894977e-02  -2.1649561623367175e-01  -8.0778476542617522e-02  8.3285483088325896e-03  2.0845999852281780e-02  2.7136185355858752e-02  8.4160453649222196e-03  8.8187817334482738e-03  -5.9260550594463196e-02  -1.6506163531127063e-01  2.1440521123186052e-02  2.7738706678158147e-03  2.6681957396803208e-02  2.7355592804784610e-03  9.6993810495723774e-03  9.6962328492787835e-03  4.9874806164234486e-03  2.6546543893789221e-03  8.8780518289017021e-03  2.8442856503216574e-03  2.6733500457591665e-03  2.6898043843733756e-03  8.5614587252784962e-03  1.9507177630860417e-02  2.8609446148880730e-03  6.8872849551571717e-03  3.2572932881168290e-02  9.7856290875448990e-03  3.6390322040604751e-03  2.6248511118195216e-03  8.4110175966906741e-03  2.8619393408799147e-02  -2.2002668978888634e-01  8.5334142596514700e-03  7.1880281199087218e-03  2.5322795028282505e-03  2.8410338356993348e-02  2.4874913423872554e-03  1.0634612957950713e-02  2.5389250773165408e-03  3.1284381392300976e-02  7.9565125876404491e-03  3.2463429784039072e-02  2.7814447621034358e-02  -1.2099011048303766e-01  2.7944864887041610e-03  3.1629581199534136e-02  2.1085198609119869e-02  3.1509069855538217e-02  2.5832623270848577e-03  6.1023601807385615e-03  2.6395272107714160e-03  -1.6599219609754243e-01  2.4074958088716259e-03  2.5732419156579141e-03  3.2444402686220335e-02  -2.6610614669507402e-02  1.0115123696872204e-02  7.6346083643972253e-03  3.2565985540818153e-02  1.9407196461297304e-02  2.6362609990074958e-02  2.8902987071805875e-02  3.2040881440827187e-02  2.0571557340374396e-02  2.6288422586010111e-02  7.5734981059980121e-03  7.4635542927937483e-03  -1.0021558874393574e-01  4.1901653204297210e-03  7.4416893248112357e-03  1.1044426322708372e-02  -1.5674346892271376e-01  -2.2211200344302184e-01  2.4111658741650449e-03  2.3688284698170632e-03  8.6299188549729122e-03  3.0655701834547626e-02  2.5342828615022590e-03  2.1334413554863207e-02  1.8539482830601747e-02  5.1560142609526410e-03  1.6394648808030283e-02  1.7643638771065690e-02  2.2770177938620011e-02  1.8765911347666159e-02  2.5487133600848675e-03  1.4060082390134033e-02  2.2069705553047557e-03  1.8620545770047479e-02  2.3396533171045437e-03  3.1402862715587320e-03  2.5737894571201026e-03  2.2075635639774048e-03  5.7587660001417219e-03  2.3026452718734624e-03  2.8238648854498269e-02  2.6735168334774444e-02  6.5434262389079782e-03  6.7076088405252253e-03  -8.9178235854136534e-02  -4.5094447004021772e-02  2.0856103435024014e-02  2.4041687118900378e-02  3.1767923179859825e-03  3.2417923377224309e-02  2.2121497300933934e-03  2.2060966041919971e-03  2.1895543469489472e-03  -6.7958679211023107e-04  3.0993276164348254e-02  3.0847490501430895e-02  3.1349467635976125e-02  -7.0425553812568237e-02  -2.2188754194183058e-01  6.1186573921515469e-03  1.1229611012524360e-02  8.9205895141862852e-03  3.1839689224616129e-02  2.8916463716366575e-03  2.1352542475089474e-03  2.9193190653049191e-03  1.4312802472544593e-02  6.6913596154995559e-03  2.8132081054318012e-02  3.0355470547946288e-02  1.4465186203125969e-02  5.7763456143575505e-03  3.4004279796267132e-03  2.9203306689077860e-03  2.8151162731986153e-02  2.0404377810843326e-03  1.4400441009030606e-03  2.9544098852495412e-02  1.0347956728933270e-02  7.5279265727339530e-03  1.4602569666805095e-02  -1.8697715517803738e-02  -3.2768775386923250e-02  4.5121307963185637e-03  -9.7349977741211704e-03  -4.1692309966190139e-02  -1.1427617639073495e-01  -1.3027092779959087e-01  1.9009695593183138e-02  1.4750299279240649e-02  1.1186464442014009e-02  -4.3476801496606404e-02  2.2307091342639281e-03  6.8193585617952997e-03  1.7641648465828139e-02  -1.2608982523696788e-01  2.9250177154992854e-02  2.0611022997665519e-02  3.0049446545436172e-02  -1.4650207791510744e-01  1.9760003995704018e-03  3.1352531266671514e-02  2.0528748977989390e-03  2.0797775254228260e-03  2.1590534886599122e-03  -1.7302919746818413e-01  -2.2519922433660997e-01  -3.1788250134683685e-02  -9.9096832057734063e-02  1.6304289067502746e-02  2.2997325644283827e-02  1.2290474066284465e-02  2.7173737230659408e-02  1.8880513234540326e-02  2.0990596995107601e-02  3.1639865237287450e-02  1.9373352250068997e-02  -4.2520129573460345e-02  1.0039891529997761e-02  -1.3049268273560760e-01  -1.1012687996905592e-01  2.8634661418127139e-02  1.2353765052673080e-02  1.5268332856714011e-02  1.9991891303599713e-03  7.9486234114790801e-03  8.5712393325943562e-03  1.9139478791687298e-03  -1.0678971416144080e-02  1.9226775822158849e-03  1.8856658650575854e-03  5.6896943847503829e-03  1.8283611278305113e-02  1.1820820087637242e-03  -6.5073478220961684e-02  1.9103143923207993e-03  1.2441075819920568e-02  1.9381126046087653e-02  3.2598353053830333e-02  -1.7017713707131250e-02  1.0997512168647050e-02  3.2430418542853473e-02  -1.1204429000956457e-02  -1.1184589821972316e-01  1.6375282351534164e-02  7.3126750070745331e-03  3.2251725189515197e-02  5.2963889136480374e-03  4.9119995521474174e-03  1.6447131985510982e-02  1.9323193107570022e-03  7.1487562491350893e-03  8.5054334349563259e-03  1.8867814942392768e-03  1.6036656565665240e-02  1.6586539343084749e-02  1.8369077876488427e-03  5.2290409634057327e-03  1.7935973056812788e-03  6.2256922254845751e-03  5.2609797431792324e-03  3.0773981259504295e-02  -2.2846237684318615e-01  5.0904429543231324e-03  -1.7470945133309271e-01  -1.4980659123295595e-01  9.9783961563037829e-03  1.8648835786042436e-03  2.6174959989229363e-02  5.0315686741254292e-03  -2.8502028747602555e-02  5.0426502127464343e-03  1.3990211127943707e-02  -2.1088990363419738e-01  6.8477106935824119e-03  1.7726371579271298e-03  2.6181993218263970e-03  6.9694015608086765e-03  8.9975400100378257e-04  2.6281830705710673e-02  1.3864831833808296e-02  2.5286000103788447e-03  -1.8700656461714266e-01  2.5600195640570884e-02  1.7759179202946392e-03  3.2355262186135214e-02  1.7475463008184131e-03  6.2491249103928210e-03  3.2404909138717408e-02  2.0378033650624953e-03  -1.1551372807082902e-01  1.6909547193022934e-03  7.0190078032091284e-03  1.7687152552824097e-03  1.9265096201872087e-02  2.8313171371893250e-02  1.6356865662744521e-02  2.8695177659777114e-02  1.7632729568027518e-03  6.2633173908831991e-03  1.8897456405965182e-02  2.5798071429007138e-03  2.4371126335085033e-02  1.0574693023762400e-02  1.7526602848435711e-03  1.7497893419757789e-03  3.1391228348642143e-02  4.4447374356815054e-03  2.9260810433812227e-02  1.1001992572723612e-02  3.1746953226231944e-02  2.7809471018025965e-02  1.6973838189070058e-03  5.8375449631288823e-03  6.8200496904340423e-03  4.6341218536075195e-03  4.6780379392980485e-03  2.6357479885592228e-02  2.6873302765678128e-03  -1.3181794305899014e-01  5.6600681784222829e-03  6.5467748113025746e-03  -6.6598218317302546e-02  3.1870949739984812e-02  6.0440058010510179e-03  1.6179497644326813e-03  2.6640605760635872e-03  2.3280215779692914e-02  1.8474924469546197e-02  1.1337547705713288e-02  7.9757499819163441e-03  1.2135403241782392e-02  1.6247607491737025e-03  1.6051532376683893e-03  2.2156554503786185e-03  1.8641561335688363e-02  5.1796158121390785e-03  1.0158487531053391e-02  4.6982201371642959e-03  5.6689262377325007e-03  5.6009397733568986e-03  2.3301293146178143e-02  6.6662680386289632e-03  3.2296520867023192e-02  2.6253532984727389e-02  3.0288204907216398e-02  2.5711422421504572e-02  3.2508705711512230e-02  2.1087807604248672e-02  4.5537885612746028e-03  2.3754007420098863e-02  9.1297719917401640e-03  -2.0518977490320822e-01  2.0919863520999414e-02  3.2422980239172727e-02  3.1993496590757474e-02  1.5030185068620942e-02  4.4103292171042063e-03  1.6335904079943044e-03  1.6671098463675233e-03  -7.6450824214058063e-02  1.5920435696217372e-02  3.2586928260309123e-02  3.2209990062689105e-02  3.5452503487261641e-03  2.6406432218970974e-02  1.6036424219718450e-03  -1.1987601966612239e-01  -3.0451534184279126e-02  3.1518519344347899e-02  9.9129693880972650e-03  5.6001100933254317e-03  4.4977175986699661e-03  1.1745869754578839e-02  1.2463602510231547e-02  2.8390061660263536e-02  4.1213329862586990e-03  3.1255068941209115e-02  3.2605112220219827e-02  6.7756391070371595e-03  -1.2232802610612346e-01  1.2782002290918772e-02  3.2630961924665795e-02  1.4482668296413500e-02  2.2294894533822249e-02  1.8977384774074270e-02  9.6476524570111213e-03  1.5031560209656451e-03  5.3115335492506131e-03  1.5369936273219012e-03  4.0842724697726721e-03  2.7754013284862697e-03  -8.6932505613092192e-03  7.7647071546429469e-03  2.7286802376254162e-02  9.5020722902205475e-03  2.3205206743047217e-02  2.8733724254187576e-02  -2.4682822232342441e-02  2.7223719352962661e-03  2.4029745443084928e-02  2.4106945700348875e-03  1.4830725265624230e-03  1.7322385577283870e-03  3.2172324471491986e-02  3.9917524788356537e-03  1.5518379354633111e-03  3.1902818774246750e-02  3.1293394315390882e-02  2.1343308235755844e-02  9.2329159408244474e-03  4.0768989966772345e-03  9.3035024539228350e-03  1.1547664164528411e-02  2.0198587238130984e-02  2.6325460368704586e-02  2.0372499266562791e-02  