<?xml version="1.0"?>
<VTKFile type="UnstructuredGrid"  version="0.1"  >
<UnstructuredGrid>
<Piece  NumberOfPoints="20054" NumberOfCells="39478">
<Points>
<DataArray  type="Float64"  NumberOfComponents="3"  format="ascii">1 0 0  0.9997998037428526 0.02000880895389431 0  0.9991992951284931 0.04000960653046352 0  0.9981987145960756 0.05999438456007805 0  0.9967984627705549 0.07995514128721501 0  0.9949991003022806 0.09988388457430118 0  0.9928013476425149 0.1197726351017051 0  0.9902060847549715 0.139613429562597 0  0.987214350763483 0.1593983238513969 0  0.9838273435359444 0.1791193962445356 0  0.9800464192046954 0.198768750572253 0  0.9758730916235354 0.2183385193801655 0  0.9713090317615876 0.237820867079336 0  0.9663560670342555 0.2572079930835849 0  0.9610161805715396 0.2764921349327862 0  0.9552915104240066 0.2956655714008991 0  0.9491843487067304 0.3147206255874884 0  0.9426971406815462 0.3336496679914983 0  0.9358324837779861 0.3524451195660473 0  0.9285931265532873 0.3710994547530225 0  0.9209819675918909 0.3896052044962556 0  0.9130020543448703 0.4079549592320781 0  0.9046565819097542 0.4261413718560547 0  0.8959488917512338 0.4441571606647087 0  0.8868824703632656 0.4619951122710622 0  0.8774609478731046 0.4796480844928215 0  0.8676880965878291 0.4971090092120542 0  0.8575678294839372 0.5143708952052096 0  0.8471041986406199 0.5314268309423539 0  0.8363013936173391 0.5482699873544935 0  0.8251637397763597 0.5648936205678837 0  0.8136956965509062 0.5812910746042258 0  0.8019018556596399 0.5974557840456699 0  0.7897869392681683 0.6133812766635599 0  0.777355798098326 0.6290611760098652 0  0.7646134094859813 0.6444892039702628 0  0.7515648753881492 0.6596591832778468 0  0.7382154203402046 0.6745650399864606 0  0.7245703893640189 0.6892008059026586 0  0.7106352458278521 0.7035606209753273 0  0.6964155692588616 0.7176387356420051 0  0.6819170531091018 0.7314295131309636 0  0.6671455024759069 0.7449274317181303 0  0.6521068317775753 0.7581270869379442 0  0.6368070623852795 0.7710231937472638 0  0.6212523202121545 0.7836105886414595 0  0.6054488332605282 0.795884231721841 0  0.5894029291282759 0.8078392087135958 0  0.5731210324752972 0.8194707329334278 0  0.5566096624511305 0.8307741472061095 0  0.5398754300847343 0.8417449257291802 0  0.5229250356374803 0.8523786758850435 0  0.5057652659204196 0.8626711399997378 0  0.4884029915768944 0.8726181970476778 0  0.4708451643315825 0.8822158643016828 0  0.45309881420708 0.8914602989276292 0  0.4351710467091336 0.9003477995230937 0  0.4170690399816468 0.9088748075993677 0  0.398800041932607 0.9170379090062476 0  0.3803713673320772 0.9248338352990368 0  0.3617903948834157 0.9322594650472057 0  0.3430645642688987 0.9393118250841893 0  0.3242013731709288 0.9459880916978206 0  0.3052083742700172 0.952285591760924 0  0.2860931722207478 0.9582018038016155 0  0.2668634206069304 0.963734359012881 0  0.2475268188771628 0.9688810422010291 0  0.2280911092620296 0.9736397926726377 0  0.2085640736741707 0.9780087050596407 0  0.1889535305924618 0.9819860300822225 0  0.1692673319315541 0.9855701752492174 0  0.1495133598980264 0.9887597054957302 0  0.1296995238344084 0.9915533437577263 0  0.1098337570523395 0.9939499714833577 0  0.08992401365612977 0.9959486290808237 0  0.06997826535799723 0.9975485163025836 0  0.05000449828625179 0.9987489925657699 0  0.03001070978771124 0.9995495772086734 0  0.01000490522562346 0.9999499496831961 0  -0.01000490522562333 0.9999499496831961 0  -0.03001070978771133 0.9995495772086734 0  -0.05000449828625144 0.9987489925657699 0  -0.06997826535799688 0.9975485163025836 0  -0.08992401365612987 0.9959486290808237 0  -0.1098337570523394 0.9939499714833577 0  -0.1296995238344082 0.9915533437577263 0  -0.1495133598980262 0.9887597054957303 0  -0.1692673319315537 0.9855701752492174 0  -0.1889535305924614 0.9819860300822226 0  -0.2085640736741705 0.9780087050596407 0  -0.2280911092620295 0.9736397926726377 0  -0.2475268188771627 0.9688810422010291 0  -0.2668634206069302 0.9637343590128811 0  -0.2860931722207475 0.9582018038016156 0  -0.3052083742700173 0.9522855917609239 0  -0.3242013731709289 0.9459880916978205 0  -0.3430645642688986 0.9393118250841894 0  -0.3617903948834154 0.9322594650472058 0  -0.380371367332077 0.924833835299037 0  -0.3988000419326071 0.9170379090062476 0  -0.4170690399816465 0.9088748075993678 0  -0.4351710467091335 0.9003477995230939 0  -0.4530988142070799 0.8914602989276292 0  -0.4708451643315824 0.8822158643016829 0  -0.4884029915768945 0.8726181970476778 0  -0.5057652659204197 0.8626711399997378 0  -0.5229250356374801 0.8523786758850437 0  -0.5398754300847342 0.8417449257291804 0  -0.5566096624511303 0.8307741472061098 0  -0.5731210324752971 0.8194707329334279 0  -0.589402929128276 0.8078392087135957 0  -0.6054488332605281 0.7958842317218411 0  -0.6212523202121542 0.7836105886414597 0  -0.6368070623852793 0.7710231937472639 0  -0.652106831777575 0.7581270869379444 0  -0.6671455024759069 0.7449274317181304 0  -0.6819170531091018 0.7314295131309636 0  -0.6964155692588616 0.7176387356420052 0  -0.7106352458278521 0.7035606209753273 0  -0.7245703893640187 0.6892008059026588 0  -0.7382154203402043 0.6745650399864608 0  -0.751564875388149 0.6596591832778469 0  -0.7646134094859813 0.6444892039702628 0  -0.7773557980983258 0.6290611760098654 0  -0.7897869392681683 0.6133812766635599 0  -0.8019018556596398 0.59745578404567 0  -0.8136956965509062 0.5812910746042258 0  -0.8251637397763595 0.5648936205678839 0  -0.836301393617339 0.5482699873544935 0  -0.8471041986406197 0.5314268309423542 0  -0.8575678294839372 0.5143708952052097 0  -0.8676880965878292 0.497109009212054 0  -0.8774609478731045 0.4796480844928216 0  -0.8868824703632656 0.4619951122710621 0  -0.8959488917512338 0.4441571606647088 0  -0.904656581909754 0.426141371856055 0  -0.9130020543448703 0.4079549592320783 0  -0.920981967591891 0.3896052044962555 0  -0.9285931265532872 0.3710994547530226 0  -0.9358324837779861 0.3524451195660473 0  -0.9426971406815462 0.3336496679914984 0  -0.9491843487067303 0.3147206255874888 0  -0.9552915104240065 0.2956655714008993 0  -0.9610161805715396 0.2764921349327862 0  -0.9663560670342555 0.2572079930835851 0  -0.9713090317615876 0.2378208670793361 0  -0.9758730916235353 0.2183385193801658 0  -0.9800464192046954 0.198768750572253 0  -0.9838273435359444 0.1791193962445354 0  -0.987214350763483 0.159398323851397 0  -0.9902060847549714 0.1396134295625972 0  -0.9928013476425149 0.1197726351017052 0  -0.9949991003022804 0.09988388457430147 0  -0.9967984627705549 0.07995514128721509 0  -0.9981987145960756 0.05999438456007793 0  -0.9991992951284931 0.04000960653046362 0  -0.9997998037428526 0.02000880895389464 0  -1 1.224646799147353e-16 0  -0.9997998037428526 -0.0200088089538944 0  -0.9991992951284931 -0.04000960653046338 0  -0.9981987145960756 -0.05999438456007812 0  -0.9967984627705549 -0.07995514128721484 0  -0.9949991003022806 -0.09988388457430078 0  -0.9928013476425149 -0.1197726351017049 0  -0.9902060847549715 -0.1396134295625965 0  -0.9872143507634831 -0.1593983238513963 0  -0.9838273435359444 -0.1791193962445356 0  -0.9800464192046953 -0.1987687505722532 0  -0.9758730916235354 -0.2183385193801655 0  -0.9713090317615876 -0.2378208670793363 0  -0.9663560670342556 -0.2572079930835848 0  -0.9610161805715396 -0.276492134932786 0  -0.9552915104240066 -0.2956655714008991 0  -0.9491843487067305 -0.3147206255874881 0  -0.9426971406815464 -0.3336496679914978 0  -0.9358324837779862 -0.3524451195660471 0  -0.9285931265532875 -0.371099454753022 0  -0.9209819675918909 -0.3896052044962557 0  -0.9130020543448704 -0.407954959232078 0  -0.9046565819097541 -0.4261413718560548 0  -0.8959488917512338 -0.4441571606647086 0  -0.8868824703632655 -0.4619951122710623 0  -0.8774609478731046 -0.4796480844928214 0  -0.8676880965878293 -0.4971090092120538 0  -0.8575678294839373 -0.5143708952052095 0  -0.84710419864062 -0.5314268309423537 0  -0.8363013936173395 -0.5482699873544929 0  -0.8251637397763596 -0.5648936205678838 0  -0.8136956965509061 -0.5812910746042259 0  -0.8019018556596399 -0.5974557840456699 0  -0.7897869392681682 -0.61338127666356 0  -0.777355798098326 -0.6290611760098652 0  -0.7646134094859816 -0.6444892039702625 0  -0.7515648753881492 -0.6596591832778468 0  -0.7382154203402048 -0.6745650399864603 0  -0.7245703893640192 -0.6892008059026583 0  -0.7106352458278522 -0.7035606209753272 0  -0.6964155692588621 -0.7176387356420046 0  -0.6819170531091017 -0.7314295131309637 0  -0.667145502475907 -0.7449274317181303 0  -0.6521068317775756 -0.758127086937944 0  -0.6368070623852792 -0.7710231937472641 0  -0.6212523202121544 -0.7836105886414596 0  -0.6054488332605283 -0.795884231721841 0  -0.5894029291282762 -0.8078392087135956 0  -0.5731210324752977 -0.8194707329334274 0  -0.5566096624511304 -0.8307741472061095 0  -0.5398754300847344 -0.8417449257291802 0  -0.5229250356374798 -0.8523786758850437 0  -0.5057652659204195 -0.8626711399997379 0  -0.4884029915768943 -0.872618197047678 0  -0.4708451643315825 -0.8822158643016828 0  -0.4530988142070805 -0.8914602989276289 0  -0.4351710467091333 -0.900347799523094 0  -0.4170690399816467 -0.9088748075993677 0  -0.3988000419326073 -0.9170379090062475 0  -0.3803713673320777 -0.9248338352990366 0  -0.3617903948834162 -0.9322594650472055 0  -0.3430645642688988 -0.9393118250841893 0  -0.3242013731709283 -0.9459880916978207 0  -0.3052083742700169 -0.9522855917609241 0  -0.2860931722207477 -0.9582018038016155 0  -0.2668634206069305 -0.963734359012881 0  -0.2475268188771631 -0.968881042201029 0  -0.2280911092620301 -0.9736397926726376 0  -0.2085640736741706 -0.9780087050596407 0  -0.1889535305924619 -0.9819860300822225 0  -0.1692673319315544 -0.9855701752492173 0  -0.1495133598980269 -0.9887597054957302 0  -0.1296995238344092 -0.9915533437577262 0  -0.1098337570523396 -0.9939499714833577 0  -0.08992401365612945 -0.9959486290808237 0  -0.06997826535799691 -0.9975485163025836 0  -0.05000449828625168 -0.9987489925657699 0  -0.030010709787
[...]
<PointData  Scalars="Displacement"> 
<DataArray  type="Float64"  Name="Displacement"  format="ascii">0.0000000000000000e+00  0.0000000000000000e+00  0.0000000000000000e+00  0.0000000000000000e+00  0.0000000000000000e+00  0.0000000000000000e+00  0.0000000000000000e+00  0.0000000000000000e+00  0.0000000000000000e+00  0.0000000000000000e+00  0.0000000000000000e+00  0.0000000000000000e+00  0.0000000000000000e+00  0.0000000000000000e+00  0.0000000000000000e+00  0.0000000000000000e+00  0.0000000000000000e+00  0.0000000000000000e+00  0.0000000000000000e+00  0.0000000000000000e+00  0.0000000000000000e+00  0.0000000000000000e+00  0.0000000000000000e+00  0.0000000000000000e+00  0.0000000000000000e+00  0.0000000000000000e+00  0.0000000000000000e+00  0.0000000000000000e+00  0.0000000000000000e+00  0.0000000000000000e+00  0.0000000000000000e+00  0.0000000000000000e+00  0.0000000000000000e+00  0.0000000000000000e+00  0.0000000000000000e+00  0.0000000000000000e+00  0.0000000000000000e+00  0.0000000000000000e+00  0.0000000000000000e+00  0.0000000000000000e+00  0.0000000000000000e+00  0.0000000000000000e+00  0.0000000000000000e+00  0.0000000000000000e+00  0.0000000000000000e+00  0.0000000000000000e+00  0.0000000000000000e+00  0.0000000000000000e+00  0.0000000000000000e+00  0.0000000000000000e+00  0.0000000000000000e+00  0.0000000000000000e+00  0.0000000000000000e+00  0.0000000000000000e+00  0.0000000000000000e+00  0.0000000000000000e+00  0.0000000000000000e+00  0.0000000000000000e+00  0.0000000000000000e+00  0.0000000000000000e+00  0.0000000000000000e+00  0.0000000000000000e+00  0.0000000000000000e+00  0.0000000000000000e+00  0.0000000000000000e+00  0.0000000000000000e+00  0.0000000000000000e+00  0.0000000000000000e+00  0.0000000000000000e+00  0.0000000000000000e+00  0.0000000000000000e+00  0.0000000000000000e+00  0.0000000000000000e+00  0.0000000000000000e+00  0.0000000000000000e+00  0.0000000000000000e+00  0.0000000000000000e+00  0.0000000000000000e+00  0.0000000000000000e+00  0.0000000000000000e+00  0.0000000000000000e+00  0.0000000000000000e+00  0.0000000000000000e+00  0.0000000000000000e+00  0.0000000000000000e+00  0.0000000000000000e+00  0.0000000000000000e+00  0.0000000000000000e+00  0.0000000000000000e+00  0.0000000000000000e+00  0.0000000000000000e+00  0.0000000000000000e+00  0.0000000000000000e+00  0.0000000000000000e+00  0.0000000000000000e+00  0.0000000000000000e+00  0.0000000000000000e+00  0.0000000000000000e+00  0.0000000000000000e+00  0.0000000000000000e+00  0.0000000000000000e+00  0.0000000000000000e+00  0.0000000000000000e+00  0.0000000000000000e+00  0.0000000000000000e+00  0.0000000000000000e+00  0.0000000000000000e+00  0.0000000000000000e+00  0.0000000000000000e+00  0.0000000000000000e+00  0.0000000000000000e+00  0.0000000000000000e+00  0.0000000000000000e+00  0.0000000000000000e+00  0.0000000000000000e+00  0.0000000000000000e+00  0.0000000000000000e+00  0.0000000000000000e+00  0.0000000000000000e+00  0.0000000000000000e+00  0.0000000000000000e+00  0.0000000000000000e+00  0.0000000000000000e+00  0.0000000000000000e+00  0.0000000000000000e+00  0.0000000000000000e+00  0.0000000000000000e+00  0.0000000000000000e+00  0.0000000000000000e+00  0.0000000000000000e+00  0.0000000000000000e+00  0.0000000000000000e+00  0.0000000000000000e+00  0.0000000000000000e+00  0.0000000000000000e+00  0.0000000000000000e+00  0.0000000000000000e+00  0.0000000000000000e+00  0.0000000000000000e+00  0.0000000000000000e+00  0.0000000000000000e+00  0.0000000000000000e+00  0.0000000000000000e+00  0.0000000000000000e+00  0.0000000000000000e+00  0.0000000000000000e+00  0.0000000000000000e+00  0.0000000000000000e+00  0.0000000000000000e+00  0.0000000000000000e+00  0.0000000000000000e+00  0.0000000000000000e+00  0.0000000000000000e+00  0.0000000000000000e+00  0.0000000000000000e+00  0.0000000000000000e+00  0.0000000000000000e+00  0.0000000000000000e+00  0.0000000000000000e+00  0.0000000000000000e+00  0.0000000000000000e+00  0.0000000000000000e+00  0.0000000000000000e+00  0.0000000000000000e+00  0.0000000000000000e+00  0.0000000000000000e+00  0.0000000000000000e+00  0.0000000000000000e+00  0.0000000000000000e+00  0.0000000000000000e+00  0.0000000000000000e+00  0.0000000000000000e+00  0.0000000000000000e+00  0.0000000000000000e+00  0.0000000000000000e+00  0.0000000000000000e+00  0.0000000000000000e+00  0.0000000000000000e+00  0.0000000000000000e+00  0.0000000000000000e+00  0.0000000000000000e+00  0.0000000000000000e+00  0.0000000000000000e+00  0.0000000000000000e+00  0.0000000000000000e+00  0.0000000000000000e+00  0.0000000000000000e+00  0.0000000000000000e+00  0.0000000000000000e+00  0.0000000000000000e+00  0.0000000000000000e+00  0.0000000000000000e+00  0.0000000000000000e+00  0.0000000000000000e+00  0.0000000000000000e+00  0.0000000000000000e+00  0.0000000000000000e+00  0.0000000000000000e+00  0.0000000000000000e+00  0.0000000000000000e+00  0.0000000000000000e+00  0.0000000000000000e+00  0.0000000000000000e+00  0.0000000000000000e+00  0.0000000000000000e+00  0.0000000000000000e+00  0.0000000000000000e+00  0.0000000000000000e+00  0.0000000000000000e+00  0.0000000000000000e+00  0.0000000000000000e+00  0.0000000000000000e+00  0.0000000000000000e+00  0.0000000000000000e+00  0.0000000000000000e+00  0.0000000000000000e+00  0.0000000000000000e+00  0.0000000000000000e+00  0.0000000000000000e+00  0.0000000000000000e+00  0.0000000000000000e+00  0.0000000000000000e+00  0.0000000000000000e+00  0.0000000000000000e+00  0.0000000000000000e+00  0.0000000000000000e+00  0.0000000000000000e+00  0.0000000000000000e+00  0.0000000000000000e+00  0.0000000000000000e+00  0.0000000000000000e+00  0.0000000000000000e+00  0.0000000000000000e+00  0.0000000000000000e+00  0.0000000000000000e+00  0.0000000000000000e+00  0.0000000000000000e+00  0.0000000000000000e+00  0.0000000000000000e+00  0.0000000000000000e+00  0.0000000000000000e+00  0.0000000000000000e+00  0.0000000000000000e+00  0.0000000000000000e+00  0.0000000000000000e+00  0.0000000000000000e+00  0.0000000000000000e+00  0.0000000000000000e+00  0.0000000000000000e+00  0.0000000000000000e+00  0.0000000000000000e+00  0.0000000000000000e+00  0.0000000000000000e+00  0.0000000000000000e+00  0.0000000000000000e+00  0.0000000000000000e+00  0.0000000000000000e+00  0.0000000000000000e+00  0.0000000000000000e+00  0.0000000000000000e+00  0.0000000000000000e+00  0.0000000000000000e+00  0.0000000000000000e+00  0.0000000000000000e+00  0.0000000000000000e+00  0.0000000000000000e+00  0.0000000000000000e+00  0.0000000000000000e+00  0.0000000000000000e+00  0.0000000000000000e+00  0.0000000000000000e+00  0.0000000000000000e+00  0.0000000000000000e+00  0.0000000000000000e+00  0.0000000000000000e+00  0.0000000000000000e+00  0.0000000000000000e+00  0.0000000000000000e+00  0.0000000000000000e+00  0.0000000000000000e+00  0.0000000000000000e+00  0.0000000000000000e+00  0.0000000000000000e+00  0.0000000000000000e+00  0.0000000000000000e+00  0.0000000000000000e+00  0.0000000000000000e+00  0.0000000000000000e+00  0.0000000000000000e+00  0.0000000000000000e+00  0.0000000000000000e+00  0.0000000000000000e+00  0.0000000000000000e+00  0.0000000000000000e+00  0.0000000000000000e+00  0.0000000000000000e+00  0.0000000000000000e+00  0.0000000000000000e+00  0.0000000000000000e+00  0.0000000000000000e+00  0.0000000000000000e+00  0.0000000000000000e+00  0.0000000000000000e+00  0.0000000000000000e+00  0.0000000000000000e+00  0.0000000000000000e+00  0.0000000000000000e+00  0.0000000000000000e+00  0.0000000000000000e+00  0.0000000000000000e+00  0.0000000000000000e+00  0.0000000000000000e+00  0.0000000000000000e+00  0.0000000000000000e+00  -6.4508668397338627e-03  -1.0229253362608279e-01  -1.0225633154811467e-01  -1.0222316476876969e-01  -1.0231762902595282e-01  -1.0228019221463022e-01  -8.9069535139728456e-02  -5.6883602731993721e-02  -4.9325400813809907e-02  -3.4527449162765747e-02  -3.4522078414982130e-02  -4.7580200877651350e-02  -1.5018343732706607e-02  -1.5004363850830186e-02  -4.3131723057091724e-02  -3.9857663719764867e-02  1.8751783176204568e-03  4.1090103289543651e-04  2.6855837013068104e-03  3.3174264751293396e-03  6.4723786739657313e-03  6.6849713407336232e-03  5.7422275643450697e-03  -8.4590751680324358e-02  -8.4577947688248126e-02  -2.8056215726766046e-02  -1.9348003420681956e-03  1.6698298256629943e-02  1.4592815813565016e-02  -1.0159034907406392e-01  1.5118146809829775e-02  -3.6014122782307985e-02  -1.9739920961120053e-02  -1.0234059934394452e-01  1.8881144603785670e-02  2.2428115219687950e-02  2.2866717848476534e-02  2.3107913961779577e-02  2.3153620038246957e-02  -9.4456223295674782e-02  -9.2532146966032500e-02  -9.0052822172624711e-02  -8.9059375416234335e-02  -1.5576254846945935e-02  2.3796009749123295e-02  2.4085563872705176e-02  2.4338121526904288e-02  2.4323376219583859e-02  -7.9303689268766839e-02  -8.2246951124473014e-02  -2.6377916320043191e-02  -9.5047204857949152e-02  -8.6691004084227113e-02  -1.0074422356109231e-01  2.4713787532172224e-02  -1.4036969349253100e-02  2.4190954397321326e-02  2.4760753468894631e-02  -5.6691112236798770e-02  2.4753466260749910e-02  2.4763321840043217e-02  -3.6812720755517628e-02  2.4730871271034679e-02  2.4757361630315264e-02  -5.6751779086667072e-02  -2.7319025838781756e-02  -8.1775956411933082e-02  -1.0079333619698075e-01  -8.0108746535291694e-02  -1.1528654705934501e-02  -5.6076472128364335e-02  -8.0552129019178006e-02  -6.0259340760338204e-02  -6.6340175172306143e-02  -6.6722729381350418e-02  -6.8480056118622526e-02  2.4694900671052868e-02  -9.0566874553919388e-02  -6.7671821250752467e-02  -4.1623103426200410e-02  2.4453987905657906e-02  -8.6263724727636285e-02  2.4294320280878696e-02  2.4373277335950263e-02  2.4093366762491270e-02  -1.0536528942213614e-02  2.4236441767455943e-02  2.3908517415236637e-02  2.3909477795851498e-02  -7.9106700305833874e-02  -2.8267720072861414e-02  2.3669959310125312e-02  -6.1437211464801786e-02  2.3565190772741537e-02  -2.8655168710602971e-02  -1.4725767712680148e-02  2.4260841160180756e-02  2.3330815361356116e-02  -2.3772501427283821e-02  -1.3191621322338703e-02  -4.5741149043678452e-02  -2.3777586097805579e-02  2.3323098241125519e-02  -9.8645149215126585e-02  -9.7446619440440863e-02  -9.7461794839415625e-02  -9.5655850456412894e-02  -1.3222068414284180e-02  -1.9914784387116191e-02  2.2235076155640368e-02  -9.3709928172272777e-02  2.2143395507918544e-02  2.2639629192425927e-02  -7.7475911648796275e-02  -7.2759634472306031e-02  -1.0782135457765948e-02  2.1740839574668814e-02  2.3091018315393588e-02  2.2869293738170326e-02  -1.1465666286318572e-02  -9.7745655480165727e-02  1.1531459479848814e-02  -4.1006084661340605e-02  2.4761170428861022e-02  -1.7233558297791852e-03  -3.3896131130634770e-02  2.2803355320404239e-02  2.1350489683596187e-02  1.2669758852033202e-03  1.4005688799016363e-04  -3.5557234056318388e-02  -2.6984064151717190e-03  -6.0113246972624247e-02  -1.0109919446315571e-01  -7.9583605273343197e-02  -1.3475527492798994e-02  2.2381993484625211e-02  -3.7682811892088046e-02  -7.8033899761534645e-02  -5.2719894113037964e-02  -8.5429848181147097e-03  -3.7429006512456633e-02  1.6271062366468709e-02  -9.3516868622564156e-02  -7.6874698225316423e-02  1.5910394690710240e-02  1.4107212662111825e-02  -4.5581344799004803e-02  -1.5895261447953651e-02  -5.1380924503389686e-02  1.9919155200476171e-02  -7.4953567366008736e-02  -7.9197285580077714e-02  1.0010048906490437e-02  1.0017777476195776e-02  2.4761948530924806e-02  1.9287503047639733e-02  1.3887198845341590e-02  2.0261398460732293e-02  1.9438241084941365e-02  1.9504395526780818e-02  1.5321381038913692e-02  -4.1844992399807830e-02  2.0350248107251973e-02  2.1535018151441699e-02  -1.0172661259976641e-01  9.5983191336829182e-03  2.3118420976128269e-02  1.9195858097313591e-02  1.5948658950524081e-02  -8.2990317398077829e-02  -8.1658055980610555e-03  1.5412207414721803e-02  -8.2440839397134591e-02  1.8707149771863191e-02  -1.0012837393453541e-01  1.8447454004253946e-02  5.2945257067712626e-03  1.8745183611081552e-02  -1.0217491476330937e-01  1.7783328985151621e-02  -9.9462719504224778e-02  -7.9659635089763828e-02  -2.5406900961113681e-02  2.0022485245795998e-02  -9.5236793483217674e-02  -4.9707876742598391e-02  -1.0227386259641254e-01  1.8958799315589244e-02  2.3488212856604514e-02  1.9259380389131345e-02  -1.5735098833986862e-02  1.8062997950702150e-02  1.8902757440449714e-02  -9.9220795958562272e-02  -6.0974249476121629e-02  7.9318103260922375e-03  1.9024973698453362e-02  -1.0158812990625142e-01  -4.1336078760277506e-02  -7.3596871343722198e-02  -8.4129254534384787e-02  -1.0234668369089588e-01  -4.7145596330858186e-02  -7.3299658270149656e-02  1.9285739411151200e-02  1.9645276337851725e-02  -3.1157114862583737e-02  2.4253002023300253e-02  1.9702194676121183e-02  3.1530439244230636e-03  -1.7452981797181823e-02  -7.9510477240717654e-03  1.8044027963922050e-02  1.7824975510768910e-02  1.4983083548450781e-02  -1.0183676591279493e-01  1.8676605284700439e-02  -5.0802641176759498e-02  -3.6938724005633840e-02  2.4706185436646037e-02  -2.5778039774096109e-02  -9.0806295021163774e-02  -5.7615519034587524e-02  -3.8099171506418936e-02  1.8759516723954060e-02  -1.3157004944279991e-02  1.6904567675474224e-02  -3.7373418420663176e-02  1.7656581369176569e-02  2.1490502560391953e-02  1.8946145895852903e-02  1.6885622598057187e-02  2.4072198149943807e-02  1.7439028119101301e-02  -9.9997608744811395e-02  -7.5165076711953896e-02  2.2497099166518687e-02  2.2057645650151555e-02  -3.4610550472209678e-02  -5.1733302130408172e-02  -4.8549732204089376e-02  -6.3461466277366457e-02  2.1621158376795242e-02  -1.0213697621938388e-01  1.6895113306915316e-02  1.6900539756351401e-02  1.6780393161762545e-02  -7.6826747827236225e-02  -1.0206627116578407e-01  -9.2025167090613660e-02  -9.4078353760173650e-02  -4.1192291630390572e-02  -7.9779170159879186e-03  2.3465098737258432e-02  -8.5614374569886367e-02  1.3676404409246374e-02  -9.6206883504688742e-02  2.0434422620343541e-02  1.6456562772247843e-02  2.0599558458679553e-02  -1.4503723384771516e-02  2.2091732669795052e-02  -8.0985249600279696e-02  -1.0163189211880864e-01  -8.8170225912714825e-02  2.4060125419427730e-02  2.2386123702709877e-02  2.0594023441463480e-02  -8.1066133847244079e-02  1.5866235756410083e-02  -7.8285153722182949e-02  -1.0102766355024567e-01  6.7512827500195056e-03  1.9400578545523812e-02  -1.6117640742598319e-02  -6.5398293053171977e-02  -5.7744919080462927e-02  -8.0482255678969675e-02  -7.0812896583865401e-02  -5.3334346047264482e-02  -2.7182154115484056e-02  -2.3130014290932113e-02  -3.9350068478571816e-02  -1.6879285563935323e-02  2.4003480652742214e-03  -5.2496517559678851e-02  1.7007940378737318e-02  2.1729188223445852e-02  -9.0796823897386608e-02  -2.4131141784844098e-02  -1.0081127504409951e-01  -4.7318270076874239e-02  -8.8731193869635253e-02  -1.9502307419323718e-02  1.5454177117673898e-02  -9.4108884444707330e-02  1.5910487789172350e-02  1.6101983185690109e-02  1.6565215558530699e-02  -1.4513041957362196e-02  -7.6399283149118759e-03  -5.8246837143153742e-02  -3.1508559865849821e-02  -2.5208934995810974e-02  -5.8687839438446680e-02  -3.5509224131278832e-03  -7.6998787203014660e-02  -3.8701943487675305e-02  -4.9201420825672887e-02  -9.5334276660878819e-02  -4.1222007431982295e-02  -5.2931845562938500e-02  8.3074819619750172e-03  -2.3059561389658197e-02  -2.8281858010026063e-02  -8.3009881797162954e-02  -3.8454486696869782e-03  -1.9681769449357896e-02  1.5552816183721447e-02  1.7844734472817429e-02  1.5247695879087956e-02  1.5016201581554461e-02  -7.0240190613464093e-02  1.5086504761732327e-02  1.4837778189244987e-02  2.4181851841711548e-02  -9.1312445710689139e-02  -7.8093678676557490e-02  -4.3231121446668797e-02  1.5003674664975823e-02  -4.3412273364414151e-03  -4.1235666585157670e-02  -1.0081173777546151e-01  -6.6408573196462817e-02  3.4062085720255224e-03  -1.0212813655785143e-01  -6.9909831419502050e-02  -2.7823889660483794e-02  -2.5683259966325950e-02  2.0177052337340032e-02  -1.0225468639785240e-01  2.4617528060621223e-02  2.4769261689541834e-02  -2.6048171014078098e-02  1.5168829191992786e-02  2.0714063204283845e-02  1.5522454128586017e-02  1.4869732865470071e-02  -2.3819671667969829e-02  -2.6774959455053472e-02  1.4565062170245538e-02  2.4648062377801094e-02  1.4223497619438395e-02  2.3266233141088312e-02  2.4610780952664731e-02  -9.1660389374224757e-02  -7.3273418457325259e-03  2.4733414791474957e-02  -1.4237541635888421e-02  -1.8817913037426248e-02  8.6246488651953064e-03  1.4741155233616056e-02  -7.2806427644075439e-02  2.4740542304047583e-02  -5.9971419223892833e-02  2.4730534907989182e-02  -1.2761497242118914e-02  -9.1696339424244735e-03  2.1670579154318227e-02  1.4093747192611465e-02  1.9182096438484845e-02  2.1264458440572200e-02  -7.7904216569546256e-02  -9.8276145650945626e-02  -1.2102424409876304e-02  1.8677344487944374e-02  -1.2325981596724810e-02  -7.0348650131788676e-02  1.4118545365414211e-02  -9.8749627836377488e-02  1.3891537286024692e-02  2.3202061797335211e-02  -1.0207339046666990e-01  1.5805272243024727e-02  -2.6840456939872845e-02  1.3544920310942109e-02  2.1136835682445454e-02  1.4067724795332586e-02  -9.2142885154924234e-02  -8.1720128324974758e-02  -2.5547403861286705e-02  -8.3288798782525833e-02  1.4030716938970870e-02  2.3172883750762967e-02  -9.1860716529809594e-02  1.8930160383168495e-02  -6.4911914168831020e-02  5.5842703850161350e-03  1.3945633805348003e-02  1.3942029123137427e-02  -9.4238641173998716e-02  2.4581419159182556e-02  -1.0084020221818336e-01  3.3795632494340705e-03  -9.5769127059980655e-02  -7.9638480571835965e-02  1.3568881690899018e-02  2.4004378143475960e-02  2.1706093377905984e-02  2.4687372543948399e-02  2.4724894620449661e-02  -9.8364597259961897e-02  -7.9159227820278219e-02  -2.2766217918069223e-02  -8.1327067270815984e-02  2.2459794956357620e-02  -4.2666231426623909e-02  -1.0234399692468665e-01  2.3615915410906633e-02  1.3038966545558653e-02  1.9361855007365866e-02  -5.9992080551764165e-02  -3.6636905889995207e-02  1.5981434383216476e-03  -8.3073257775074211e-02  -2.6834268312811126e-03  1.3093017313442010e-02  1.2928341389072824e-02  1.6922588527843067e-02  -3.7482064846821352e-02  2.4677199669736343e-02  7.7242924078597987e-03  2.4720270114691547e-02  2.4235618009623268e-02  2.4283836572623826e-02  -6.0083469977125249e-02  2.2155020142600054e-02  -1.0223728327707443e-01  -7.3115372853904292e-02  -8.9713013356844035e-02  -7.0796143375812165e-02  -9.9709857026749324e-02  -9.3714919011031045e-02  2.4647916399775652e-02  -9.6049464431039872e-02  1.2698531226489512e-02  -9.8596531288653502e-03  -4.8872661590221592e-02  -1.0214152973708260e-01  -9.6860164512876559e-02  -8.8623225692426963e-02  2.4502866183068669e-02  1.3111632980492600e-02  1.3334235646061334e-02  -3.8975000823774621e-02  -2.3232043291080882e-02  -1.0062718289266058e-01  -1.0231500655206170e-01  2.2849834804163468e-02  -7.3782972419011106e-02  1.2911381231988097e-02  -2.5674368826956995e-02  -5.8949386361426361e-02  -1.0225453365029682e-01  8.9072294790046632e-03  2.4324396638339754e-02  2.4591352307062594e-02  -5.5962322971117129e-04  -4.4458576878938002e-03  -8.2016939009288040e-02  2.4152742624270668e-02  -1.0213809186129692e-01  -1.0053981862575599e-01  2.1864041590267211e-02  -2.5064188944701873e-02  -6.1304693901486768e-03  -1.0093030775428040e-01  -1.5461212989620172e-02  -5.5431693103869022e-02  -3.9203087288977576e-02  1.0265414933708479e-02  1.2202553281200606e-02  2.4615454417285708e-02  1.2460427850901536e-02  2.4096938844657429e-02  1.9907518369774831e-02  -7.1499186437766316e-02  1.8572177171834774e-02  -7.7480129520822158e-02  1.0960919785379181e-02  -9.5586370885601499e-02  -8.3413577599156200e-02  -6.2036597615242009e-02  1.9674302286174960e-02  -9.6330060844224963e-02  1.8012509725766488e-02  1.2037165907343154e-02  1.3831343454830192e-02  -9.7783176126057844e-02  2.3925357108516135e-02  1.2530142619090804e-02  -9.6531841570794502e-02  -9.38697