<?xml version="1.0"?>
<VTKFile type="UnstructuredGrid"  version="0.1"  >
<UnstructuredGrid>
<Piece  NumberOfPoints="20054" NumberOfCells="39478">
<Points>
<DataArray  type="Float64"  NumberOfComponents="3"  format="ascii">1 0 0  0.9997998037428526 0.02000880895389431 0  0.9991992951284931 0.04000960653046352 0  0.9981987145960756 0.05999438456007805 0  0.9967984627705549 0.07995514128721501 0  0.9949991003022806 0.09988388457430118 0  0.9928013476425149 0.1197726351017051 0  0.9902060847549715 0.139613429562597 0  0.987214350763483 0.1593983238513969 0  0.9838273435359444 0.1791193962445356 0  0.9800464192046954 0.198768750572253 0  0.9758730916235354 0.2183385193801655 0  0.9713090317615876 0.237820867079336 0  0.9663560670342555 0.2572079930835849 0  0.9610161805715396 0.2764921349327862 0  0.9552915104240066 0.2956655714008991 0  0.9491843487067304 0.3147206255874884 0  0.9426971406815462 0.3336496679914983 0  0.9358324837779861 0.3524451195660473 0  0.9285931265532873 0.3710994547530225 0  0.9209819675918909 0.3896052044962556 0  0.9130020543448703 0.4079549592320781 0  0.9046565819097542 0.4261413718560547 0  0.8959488917512338 0.4441571606647087 0  0.8868824703632656 0.4619951122710622 0  0.8774609478731046 0.4796480844928215 0  0.8676880965878291 0.4971090092120542 0  0.8575678294839372 0.5143708952052096 0  0.8471041986406199 0.5314268309423539 0  0.8363013936173391 0.5482699873544935 0  0.8251637397763597 0.5648936205678837 0  0.8136956965509062 0.5812910746042258 0  0.8019018556596399 0.5974557840456699 0  0.7897869392681683 0.6133812766635599 0  0.777355798098326 0.6290611760098652 0  0.7646134094859813 0.6444892039702628 0  0.7515648753881492 0.6596591832778468 0  0.7382154203402046 0.6745650399864606 0  0.7245703893640189 0.6892008059026586 0  0.7106352458278521 0.7035606209753273 0  0.6964155692588616 0.7176387356420051 0  0.6819170531091018 0.7314295131309636 0  0.6671455024759069 0.7449274317181303 0  0.6521068317775753 0.7581270869379442 0  0.6368070623852795 0.7710231937472638 0  0.6212523202121545 0.7836105886414595 0  0.6054488332605282 0.795884231721841 0  0.5894029291282759 0.8078392087135958 0  0.5731210324752972 0.8194707329334278 0  0.5566096624511305 0.8307741472061095 0  0.5398754300847343 0.8417449257291802 0  0.5229250356374803 0.8523786758850435 0  0.5057652659204196 0.8626711399997378 0  0.4884029915768944 0.8726181970476778 0  0.4708451643315825 0.8822158643016828 0  0.45309881420708 0.8914602989276292 0  0.4351710467091336 0.9003477995230937 0  0.4170690399816468 0.9088748075993677 0  0.398800041932607 0.9170379090062476 0  0.3803713673320772 0.9248338352990368 0  0.3617903948834157 0.9322594650472057 0  0.3430645642688987 0.9393118250841893 0  0.3242013731709288 0.9459880916978206 0  0.3052083742700172 0.952285591760924 0  0.2860931722207478 0.9582018038016155 0  0.2668634206069304 0.963734359012881 0  0.2475268188771628 0.9688810422010291 0  0.2280911092620296 0.9736397926726377 0  0.2085640736741707 0.9780087050596407 0  0.1889535305924618 0.9819860300822225 0  0.1692673319315541 0.9855701752492174 0  0.1495133598980264 0.9887597054957302 0  0.1296995238344084 0.9915533437577263 0  0.1098337570523395 0.9939499714833577 0  0.08992401365612977 0.9959486290808237 0  0.06997826535799723 0.9975485163025836 0  0.05000449828625179 0.9987489925657699 0  0.03001070978771124 0.9995495772086734 0  0.01000490522562346 0.9999499496831961 0  -0.01000490522562333 0.9999499496831961 0  -0.03001070978771133 0.9995495772086734 0  -0.05000449828625144 0.9987489925657699 0  -0.06997826535799688 0.9975485163025836 0  -0.08992401365612987 0.9959486290808237 0  -0.1098337570523394 0.9939499714833577 0  -0.1296995238344082 0.9915533437577263 0  -0.1495133598980262 0.9887597054957303 0  -0.1692673319315537 0.9855701752492174 0  -0.1889535305924614 0.9819860300822226 0  -0.2085640736741705 0.9780087050596407 0  -0.2280911092620295 0.9736397926726377 0  -0.2475268188771627 0.9688810422010291 0  -0.2668634206069302 0.9637343590128811 0  -0.2860931722207475 0.9582018038016156 0  -0.3052083742700173 0.9522855917609239 0  -0.3242013731709289 0.9459880916978205 0  -0.3430645642688986 0.9393118250841894 0  -0.3617903948834154 0.9322594650472058 0  -0.380371367332077 0.924833835299037 0  -0.3988000419326071 0.9170379090062476 0  -0.4170690399816465 0.9088748075993678 0  -0.4351710467091335 0.9003477995230939 0  -0.4530988142070799 0.8914602989276292 0  -0.4708451643315824 0.8822158643016829 0  -0.4884029915768945 0.8726181970476778 0  -0.5057652659204197 0.8626711399997378 0  -0.5229250356374801 0.8523786758850437 0  -0.5398754300847342 0.8417449257291804 0  -0.5566096624511303 0.8307741472061098 0  -0.5731210324752971 0.8194707329334279 0  -0.589402929128276 0.8078392087135957 0  -0.6054488332605281 0.7958842317218411 0  -0.6212523202121542 0.7836105886414597 0  -0.6368070623852793 0.7710231937472639 0  -0.652106831777575 0.7581270869379444 0  -0.6671455024759069 0.7449274317181304 0  -0.6819170531091018 0.7314295131309636 0  -0.6964155692588616 0.7176387356420052 0  -0.7106352458278521 0.7035606209753273 0  -0.7245703893640187 0.6892008059026588 0  -0.7382154203402043 0.6745650399864608 0  -0.751564875388149 0.6596591832778469 0  -0.7646134094859813 0.6444892039702628 0  -0.7773557980983258 0.6290611760098654 0  -0.7897869392681683 0.6133812766635599 0  -0.8019018556596398 0.59745578404567 0  -0.8136956965509062 0.5812910746042258 0  -0.8251637397763595 0.5648936205678839 0  -0.836301393617339 0.5482699873544935 0  -0.8471041986406197 0.5314268309423542 0  -0.8575678294839372 0.5143708952052097 0  -0.8676880965878292 0.497109009212054 0  -0.8774609478731045 0.4796480844928216 0  -0.8868824703632656 0.4619951122710621 0  -0.8959488917512338 0.4441571606647088 0  -0.904656581909754 0.426141371856055 0  -0.9130020543448703 0.4079549592320783 0  -0.920981967591891 0.3896052044962555 0  -0.9285931265532872 0.3710994547530226 0  -0.9358324837779861 0.3524451195660473 0  -0.9426971406815462 0.3336496679914984 0  -0.9491843487067303 0.3147206255874888 0  -0.9552915104240065 0.2956655714008993 0  -0.9610161805715396 0.2764921349327862 0  -0.9663560670342555 0.2572079930835851 0  -0.9713090317615876 0.2378208670793361 0  -0.9758730916235353 0.2183385193801658 0  -0.9800464192046954 0.198768750572253 0  -0.9838273435359444 0.1791193962445354 0  -0.987214350763483 0.159398323851397 0  -0.9902060847549714 0.1396134295625972 0  -0.9928013476425149 0.1197726351017052 0  -0.9949991003022804 0.09988388457430147 0  -0.9967984627705549 0.07995514128721509 0  -0.9981987145960756 0.05999438456007793 0  -0.9991992951284931 0.04000960653046362 0  -0.9997998037428526 0.02000880895389464 0  -1 1.224646799147353e-16 0  -0.9997998037428526 -0.0200088089538944 0  -0.9991992951284931 -0.04000960653046338 0  -0.9981987145960756 -0.05999438456007812 0  -0.9967984627705549 -0.07995514128721484 0  -0.9949991003022806 -0.09988388457430078 0  -0.9928013476425149 -0.1197726351017049 0  -0.9902060847549715 -0.1396134295625965 0  -0.9872143507634831 -0.1593983238513963 0  -0.9838273435359444 -0.1791193962445356 0  -0.9800464192046953 -0.1987687505722532 0  -0.9758730916235354 -0.2183385193801655 0  -0.9713090317615876 -0.2378208670793363 0  -0.9663560670342556 -0.2572079930835848 0  -0.9610161805715396 -0.276492134932786 0  -0.9552915104240066 -0.2956655714008991 0  -0.9491843487067305 -0.3147206255874881 0  -0.9426971406815464 -0.3336496679914978 0  -0.9358324837779862 -0.3524451195660471 0  -0.9285931265532875 -0.371099454753022 0  -0.9209819675918909 -0.3896052044962557 0  -0.9130020543448704 -0.407954959232078 0  -0.9046565819097541 -0.4261413718560548 0  -0.8959488917512338 -0.4441571606647086 0  -0.8868824703632655 -0.4619951122710623 0  -0.8774609478731046 -0.4796480844928214 0  -0.8676880965878293 -0.4971090092120538 0  -0.8575678294839373 -0.5143708952052095 0  -0.84710419864062 -0.5314268309423537 0  -0.8363013936173395 -0.5482699873544929 0  -0.8251637397763596 -0.5648936205678838 0  -0.8136956965509061 -0.5812910746042259 0  -0.8019018556596399 -0.5974557840456699 0  -0.7897869392681682 -0.61338127666356 0  -0.777355798098326 -0.6290611760098652 0  -0.7646134094859816 -0.6444892039702625 0  -0.7515648753881492 -0.6596591832778468 0  -0.7382154203402048 -0.6745650399864603 0  -0.7245703893640192 -0.6892008059026583 0  -0.7106352458278522 -0.7035606209753272 0  -0.6964155692588621 -0.7176387356420046 0  -0.6819170531091017 -0.7314295131309637 0  -0.667145502475907 -0.7449274317181303 0  -0.6521068317775756 -0.758127086937944 0  -0.6368070623852792 -0.7710231937472641 0  -0.6212523202121544 -0.7836105886414596 0  -0.6054488332605283 -0.795884231721841 0  -0.5894029291282762 -0.8078392087135956 0  -0.5731210324752977 -0.8194707329334274 0  -0.5566096624511304 -0.8307741472061095 0  -0.5398754300847344 -0.8417449257291802 0  -0.5229250356374798 -0.8523786758850437 0  -0.5057652659204195 -0.8626711399997379 0  -0.4884029915768943 -0.872618197047678 0  -0.4708451643315825 -0.8822158643016828 0  -0.4530988142070805 -0.8914602989276289 0  -0.4351710467091333 -0.900347799523094 0  -0.4170690399816467 -0.9088748075993677 0  -0.3988000419326073 -0.9170379090062475 0  -0.3803713673320777 -0.9248338352990366 0  -0.3617903948834162 -0.9322594650472055 0  -0.3430645642688988 -0.9393118250841893 0  -0.3242013731709283 -0.9459880916978207 0  -0.3052083742700169 -0.9522855917609241 0  -0.2860931722207477 -0.9582018038016155 0  -0.2668634206069305 -0.963734359012881 0  -0.2475268188771631 -0.968881042201029 0  -0.2280911092620301 -0.9736397926726376 0  -0.2085640736741706 -0.9780087050596407 0  -0.1889535305924619 -0.9819860300822225 0  -0.1692673319315544 -0.9855701752492173 0  -0.1495133598980269 -0.9887597054957302 0  -0.1296995238344092 -0.9915533437577262 0  -0.1098337570523396 -0.9939499714833577 0  -0.08992401365612945 -0.9959486290808237 0  -0.06997826535799691 -0.9975485163025836 0  -0.05000449828625168 -0.9987489925657699 0  -0.030010709787
[...]
<PointData  Scalars="Displacement"> 
<DataArray  type="Float64"  Name="Displacement"  format="ascii">0.0000000000000000e+00  0.0000000000000000e+00  0.0000000000000000e+00  0.0000000000000000e+00  0.0000000000000000e+00  0.0000000000000000e+00  0.0000000000000000e+00  0.0000000000000000e+00  0.0000000000000000e+00  0.0000000000000000e+00  0.0000000000000000e+00  0.0000000000000000e+00  0.0000000000000000e+00  0.0000000000000000e+00  0.0000000000000000e+00  0.0000000000000000e+00  0.0000000000000000e+00  0.0000000000000000e+00  0.0000000000000000e+00  0.0000000000000000e+00  0.0000000000000000e+00  0.0000000000000000e+00  0.0000000000000000e+00  0.0000000000000000e+00  0.0000000000000000e+00  0.0000000000000000e+00  0.0000000000000000e+00  0.0000000000000000e+00  0.0000000000000000e+00  0.0000000000000000e+00  0.0000000000000000e+00  0.0000000000000000e+00  0.0000000000000000e+00  0.0000000000000000e+00  0.0000000000000000e+00  0.0000000000000000e+00  0.0000000000000000e+00  0.0000000000000000e+00  0.0000000000000000e+00  0.0000000000000000e+00  0.0000000000000000e+00  0.0000000000000000e+00  0.0000000000000000e+00  0.0000000000000000e+00  0.0000000000000000e+00  0.0000000000000000e+00  0.0000000000000000e+00  0.0000000000000000e+00  0.0000000000000000e+00  0.0000000000000000e+00  0.0000000000000000e+00  0.0000000000000000e+00  0.0000000000000000e+00  0.0000000000000000e+00  0.0000000000000000e+00  0.0000000000000000e+00  0.0000000000000000e+00  0.0000000000000000e+00  0.0000000000000000e+00  0.0000000000000000e+00  0.0000000000000000e+00  0.0000000000000000e+00  0.0000000000000000e+00  0.0000000000000000e+00  0.0000000000000000e+00  0.0000000000000000e+00  0.0000000000000000e+00  0.0000000000000000e+00  0.0000000000000000e+00  0.0000000000000000e+00  0.0000000000000000e+00  0.0000000000000000e+00  0.0000000000000000e+00  0.0000000000000000e+00  0.0000000000000000e+00  0.0000000000000000e+00  0.0000000000000000e+00  0.0000000000000000e+00  0.0000000000000000e+00  0.0000000000000000e+00  0.0000000000000000e+00  0.0000000000000000e+00  0.0000000000000000e+00  0.0000000000000000e+00  0.0000000000000000e+00  0.0000000000000000e+00  0.0000000000000000e+00  0.0000000000000000e+00  0.0000000000000000e+00  0.0000000000000000e+00  0.0000000000000000e+00  0.0000000000000000e+00  0.0000000000000000e+00  0.0000000000000000e+00  0.0000000000000000e+00  0.0000000000000000e+00  0.0000000000000000e+00  0.0000000000000000e+00  0.0000000000000000e+00  0.0000000000000000e+00  0.0000000000000000e+00  0.0000000000000000e+00  0.0000000000000000e+00  0.0000000000000000e+00  0.0000000000000000e+00  0.0000000000000000e+00  0.0000000000000000e+00  0.0000000000000000e+00  0.0000000000000000e+00  0.0000000000000000e+00  0.0000000000000000e+00  0.0000000000000000e+00  0.0000000000000000e+00  0.0000000000000000e+00  0.0000000000000000e+00  0.0000000000000000e+00  0.0000000000000000e+00  0.0000000000000000e+00  0.0000000000000000e+00  0.0000000000000000e+00  0.0000000000000000e+00  0.0000000000000000e+00  0.0000000000000000e+00  0.0000000000000000e+00  0.0000000000000000e+00  0.0000000000000000e+00  0.0000000000000000e+00  0.0000000000000000e+00  0.0000000000000000e+00  0.0000000000000000e+00  0.0000000000000000e+00  0.0000000000000000e+00  0.0000000000000000e+00  0.0000000000000000e+00  0.0000000000000000e+00  0.0000000000000000e+00  0.0000000000000000e+00  0.0000000000000000e+00  0.0000000000000000e+00  0.0000000000000000e+00  0.0000000000000000e+00  0.0000000000000000e+00  0.0000000000000000e+00  0.0000000000000000e+00  0.0000000000000000e+00  0.0000000000000000e+00  0.0000000000000000e+00  0.0000000000000000e+00  0.0000000000000000e+00  0.0000000000000000e+00  0.0000000000000000e+00  0.0000000000000000e+00  0.0000000000000000e+00  0.0000000000000000e+00  0.0000000000000000e+00  0.0000000000000000e+00  0.0000000000000000e+00  0.0000000000000000e+00  0.0000000000000000e+00  0.0000000000000000e+00  0.0000000000000000e+00  0.0000000000000000e+00  0.0000000000000000e+00  0.0000000000000000e+00  0.0000000000000000e+00  0.0000000000000000e+00  0.0000000000000000e+00  0.0000000000000000e+00  0.0000000000000000e+00  0.0000000000000000e+00  0.0000000000000000e+00  0.0000000000000000e+00  0.0000000000000000e+00  0.0000000000000000e+00  0.0000000000000000e+00  0.0000000000000000e+00  0.0000000000000000e+00  0.0000000000000000e+00  0.0000000000000000e+00  0.0000000000000000e+00  0.0000000000000000e+00  0.0000000000000000e+00  0.0000000000000000e+00  0.0000000000000000e+00  0.0000000000000000e+00  0.0000000000000000e+00  0.0000000000000000e+00  0.0000000000000000e+00  0.0000000000000000e+00  0.0000000000000000e+00  0.0000000000000000e+00  0.0000000000000000e+00  0.0000000000000000e+00  0.0000000000000000e+00  0.0000000000000000e+00  0.0000000000000000e+00  0.0000000000000000e+00  0.0000000000000000e+00  0.0000000000000000e+00  0.0000000000000000e+00  0.0000000000000000e+00  0.0000000000000000e+00  0.0000000000000000e+00  0.0000000000000000e+00  0.0000000000000000e+00  0.0000000000000000e+00  0.0000000000000000e+00  0.0000000000000000e+00  0.0000000000000000e+00  0.0000000000000000e+00  0.0000000000000000e+00  0.0000000000000000e+00  0.0000000000000000e+00  0.0000000000000000e+00  0.0000000000000000e+00  0.0000000000000000e+00  0.0000000000000000e+00  0.0000000000000000e+00  0.0000000000000000e+00  0.0000000000000000e+00  0.0000000000000000e+00  0.0000000000000000e+00  0.0000000000000000e+00  0.0000000000000000e+00  0.0000000000000000e+00  0.0000000000000000e+00  0.0000000000000000e+00  0.0000000000000000e+00  0.0000000000000000e+00  0.0000000000000000e+00  0.0000000000000000e+00  0.0000000000000000e+00  0.0000000000000000e+00  0.0000000000000000e+00  0.0000000000000000e+00  0.0000000000000000e+00  0.0000000000000000e+00  0.0000000000000000e+00  0.0000000000000000e+00  0.0000000000000000e+00  0.0000000000000000e+00  0.0000000000000000e+00  0.0000000000000000e+00  0.0000000000000000e+00  0.0000000000000000e+00  0.0000000000000000e+00  0.0000000000000000e+00  0.0000000000000000e+00  0.0000000000000000e+00  0.0000000000000000e+00  0.0000000000000000e+00  0.0000000000000000e+00  0.0000000000000000e+00  0.0000000000000000e+00  0.0000000000000000e+00  0.0000000000000000e+00  0.0000000000000000e+00  0.0000000000000000e+00  0.0000000000000000e+00  0.0000000000000000e+00  0.0000000000000000e+00  0.0000000000000000e+00  0.0000000000000000e+00  0.0000000000000000e+00  0.0000000000000000e+00  0.0000000000000000e+00  0.0000000000000000e+00  0.0000000000000000e+00  0.0000000000000000e+00  0.0000000000000000e+00  0.0000000000000000e+00  0.0000000000000000e+00  0.0000000000000000e+00  0.0000000000000000e+00  0.0000000000000000e+00  0.0000000000000000e+00  0.0000000000000000e+00  0.0000000000000000e+00  0.0000000000000000e+00  0.0000000000000000e+00  0.0000000000000000e+00  0.0000000000000000e+00  0.0000000000000000e+00  0.0000000000000000e+00  0.0000000000000000e+00  0.0000000000000000e+00  0.0000000000000000e+00  0.0000000000000000e+00  0.0000000000000000e+00  0.0000000000000000e+00  0.0000000000000000e+00  0.0000000000000000e+00  0.0000000000000000e+00  0.0000000000000000e+00  0.0000000000000000e+00  0.0000000000000000e+00  0.0000000000000000e+00  0.0000000000000000e+00  0.0000000000000000e+00  0.0000000000000000e+00  0.0000000000000000e+00  0.0000000000000000e+00  0.0000000000000000e+00  0.0000000000000000e+00  0.0000000000000000e+00  0.0000000000000000e+00  0.0000000000000000e+00  0.0000000000000000e+00  0.0000000000000000e+00  0.0000000000000000e+00  0.0000000000000000e+00  0.0000000000000000e+00  0.0000000000000000e+00  0.0000000000000000e+00  -1.0551722691221932e-02  -1.7656089844397163e-02  -1.7676425066707930e-02  -1.7651267097552867e-02  -1.7686367331654716e-02  -1.7644266526290229e-02  -2.0799249973463628e-02  -2.5884516858615952e-02  -2.7000231654533274e-02  -3.0215990713015336e-02  -3.0336682558617895e-02  -1.2887684156404565e-02  -3.6314916806169585e-02  -3.6201329997917871e-02  -1.2329217937648589e-02  -1.2398004778815142e-02  -4.6908729134116027e-02  -4.4955029316313143e-02  -4.8144135696153820e-02  -4.8586513432026919e-02  -5.4193946225126362e-02  -5.4382543164874564e-02  -5.2380405905242927e-02  -1.4506541615823695e-02  -1.4908356544193372e-02  -1.2038987281599373e-02  -4.2561192853223531e-02  -7.9007434439390567e-02  -7.2575864714859023e-02  -1.6777002906197169e-02  -7.3942761032117055e-02  -1.2416114269982004e-02  -1.1682258780254645e-02  -1.7096110011755549e-02  -8.6802074878338964e-02  -1.0630184798656619e-01  -1.0945795100118576e-01  -1.1191428094734508e-01  -1.1200251013502101e-01  -1.9528177117934059e-02  -2.0169565461600758e-02  -2.0560770990965455e-02  -2.0615882783451358e-02  -1.1446450097881091e-02  -1.1864835426997435e-01  -1.2187931410390039e-01  -1.2550260788189477e-01  -1.2565981775843424e-01  -2.2419302248479198e-02  -2.2046287131703125e-02  -3.2958171728162365e-02  -1.9873099074066293e-02  -2.0929945736012982e-02  -1.6412198615813733e-02  -1.3620645572300716e-01  -1.1614247106992727e-02  -1.2338789784935052e-01  -1.3633252526195733e-01  -1.3467097461262147e-02  -1.3797958818838807e-01  -1.3725086785794438e-01  -2.9361036438080673e-02  -1.3869338329305256e-01  -1.3552755188470655e-01  -1.3205123635068008e-02  -1.1837146893922262e-02  -1.4621243549081901e-02  -1.6417841254290716e-02  -1.4298514169692297e-02  -1.1139508349708827e-02  -1.3414414201956337e-02  -2.2325346589061525e-02  -2.5505549932506023e-02  -2.4074628385966832e-02  -2.4115096506073096e-02  -1.3946752075468369e-02  -1.3970561680309398e-01  -1.5237682823108827e-02  -1.3982396806327282e-02  -2.8418738908541897e-02  -1.4245732757722088e-01  -1.4879573078251296e-02  -1.4308460570378317e-01  -1.4283807727627953e-01  -1.4384453341911788e-01  -1.0941518690193670e-02  -1.4354797240177308e-01  -1.4446979678499261e-01  -1.4398084463839958e-01  -1.4563405306897091e-02  -3.2578372143066095e-02  -1.4425077212872175e-01  -2.5262186445805950e-02  -1.4452578165768623e-01  -3.2295348030126687e-02  -1.1534581846113688e-02  -1.4353779496027572e-01  -1.4465016956800850e-01  -3.3797476164992464e-02  -3.6795679438486238e-02  -2.7568064019861092e-02  -3.3778999259156166e-02  -1.4453280301662338e-01  -1.6156444970514532e-02  -1.9356616755710161e-02  -1.9387052281728122e-02  -1.5640136110735461e-02  -3.6729240724477884e-02  -3.4911220672877642e-02  -1.4307418464232130e-01  -1.5410404655316247e-02  -1.4285318403674988e-01  -1.4412578093954986e-01  -2.2710618931840024e-02  -2.3282551925800147e-02  -3.7534673807422578e-02  -1.4168074965814598e-01  -1.4468268044741983e-01  -1.4436545527469941e-01  -1.1249674753002736e-02  -1.5794538083879005e-02  -6.4497510894064122e-02  -1.3046364505480291e-02  -1.3727919323120757e-01  -4.3052126540192519e-02  -3.0589485862195495e-02  -1.4426825302893143e-01  -1.4075977265179893e-01  -4.5975852597310539e-02  -4.4736764348956778e-02  -3.0001368492966744e-02  -4.2115749563722819e-02  -2.5417473927166100e-02  -1.6791786408498422e-02  -2.2412840065965424e-02  -3.6706039984917206e-02  -1.4334690306210693e-01  -1.2280075631204134e-02  -1.4335934463033492e-02  -1.3082442504009927e-02  -1.1005340017915446e-02  -1.2489350110199721e-02  -7.7670129180042374e-02  -1.5414744941107414e-02  -2.2821989395358788e-02  -7.6180556808214367e-02  -7.1327847311232109e-02  -1.2651054609157008e-02  -1.1590587048435613e-02  -2.7128931501664368e-02  -1.3533887044437704e-01  -2.2908241586444375e-02  -1.4399892426535109e-02  -6.1206380346764878e-02  -6.1101035025900641e-02  -1.3586991674200372e-01  -1.3251897835197082e-01  -7.0438829983672943e-02  -1.3690297888813838e-01  -1.3326303327226513e-01  -1.3373113642270718e-01  -7.4070326373811946e-02  -2.8199792453022836e-02  -1.3724334153187148e-01  -9.9952528601136292e-02  -1.8225830478563014e-02  -6.0156290382372142e-02  -1.4411410462865679e-01  -1.3234680172180105e-01  -7.6569407665475903e-02  -2.1899284994437995e-02  -1.1291664024495069e-02  -7.5028157499728382e-02  -1.4629191923431614e-02  -1.2997359145314058e-01  -1.6254022856259074e-02  -1.2875427891543151e-01  -5.2028663568627544e-02  -1.3014532354329270e-01  -1.7036393966859974e-02  -8.2737577241662114e-02  -1.8650499488227133e-02  -2.2356956407181217e-02  -1.1944227385819926e-02  -1.3581544060463835e-01  -1.9854386255065977e-02  -2.7109862541914012e-02  -1.7342987338685265e-02  -1.3130945719696346e-01  -1.1549789058342183e-01  -1.3234927254732223e-01  -1.1816045584476463e-02  -1.2666153896469695e-01  -1.3100120701568860e-01  -1.8846618281180956e-02  -1.3469188691443448e-02  -5.6437476469341684e-02  -8.7421790513405068e-02  -1.8042144697573950e-02  -2.8267873823626721e-02  -2.3121974508932223e-02  -2.1659192620811597e-02  -1.7720719250084664e-02  -2.7488198271175289e-02  -2.3030589475995060e-02  -8.8238418674235999e-02  -9.0064536845593637e-02  -1.2239283891299609e-02  -1.4323585914089967e-01  -9.0291426517604190e-02  -4.8720530064111520e-02  -1.1748730520738259e-02  -1.1026839267974913e-02  -1.2659657421208181e-01  -1.2578600911109886e-01  -7.3655826902094060e-02  -1.6739258043743516e-02  -1.2951249471924514e-01  -2.6844775431404840e-02  -2.9232505341841696e-02  -1.3336225148946193e-01  -3.3166353720650951e-02  -1.5373675339441823e-02  -2.6129539727451873e-02  -2.9343707270801232e-02  -1.3043419276993379e-01  -3.6997233019702515e-02  -1.2083094020032259e-01  -2.9337720784170625e-02  -1.2464244969051889e-01  -1.4158680300020735e-01  -1.3104303282391100e-01  -1.2068284704148111e-01  -1.2291302619517847e-01  -1.2348944669664652e-01  -1.6440832139642314e-02  -2.2857147295770760e-02  -1.0664941994426039e-01  -1.0341597122812968e-01  -1.2635958477962993e-02  -1.2999107827648486e-02  -2.7105764901552688e-02  -2.4742139866153194e-02  -1.4175604086819524e-01  -1.7971017101773831e-02  -1.2057372308363921e-01  -1.2056932612339488e-01  -1.1991436654967978e-01  -1.4108944069745092e-02  -1.7074641907410613e-02  -2.0015456818332705e-02  -2.0152570346734327e-02  -1.2802498244804882e-02  -1.1616270643017736e-02  -1.1532307187704571e-01  -1.4792432572143698e-02  -7.0092822661851364e-02  -1.9658918595728665e-02  -1.3741668960534789e-01  -1.1791297612775470e-01  -1.3790910640212253e-01  -3.6736612639420706e-02  -1.0353224704589511e-01  -2.2178272400043469e-02  -1.6691470798895065e-02  -1.5085774142065292e-02  -1.2187838279518429e-01  -1.4327100507261870e-01  -1.3808253455350653e-01  -2.1877784528525273e-02  -1.1510676508155676e-01  -1.4283930251570093e-02  -1.6687315347131984e-02  -5.4479030855476257e-02  -8.9203705580212247e-02  -3.6120302607033049e-02  -1.3758203980695655e-02  -1.3364085337621472e-02  -1.4490567366404342e-02  -1.3898012878631875e-02  -1.3105901424560955e-02  -1.1814919340821671e-02  -1.2259816462584007e-02  -2.9123204752886708e-02  -3.5770314233470671e-02  -4.7359535057964600e-02  -1.3123358569048768e-02  -1.2135512988831562e-01  -1.0136712134540214e-01  -1.5395435375149773e-02  -1.1654868989135297e-02  -1.6649998329598490e-02  -2.7474181349023814e-02  -2.0721128187279572e-02  -1.1917227803084181e-02  -1.1255724846477783e-01  -1.9854891253105134e-02  -1.1506410795069219e-01  -1.1624496313213524e-01  -1.1888300958605029e-01  -1.1605008292156941e-02  -1.1062553609825687e-02  -1.3339414405617995e-02  -1.2238424646933265e-02  -3.3459393203663632e-02  -2.5847892378614550e-02  -4.1247143357797098e-02  -2.2815497795786833e-02  -2.9429946790057129e-02  -2.7241823050151461e-02  -1.9874733886339258e-02  -2.8444954106182987e-02  -1.3121168258608845e-02  -5.7540846049962596e-02  -1.1803890538418156e-02  -1.1982159465676946e-02  -2.1951910122697340e-02  -4.0904767611388893e-02  -3.4849353406152854e-02  -1.1312432504920998e-01  -8.2797894649487308e-02  -7.4490370753134222e-02  -1.1024391837193158e-01  -1.3515610940315769e-02  -1.1039061580914115e-01  -1.0892509945325554e-01  -1.2390074283955686e-01  -1.5358253399353747e-02  -1.4512984837774641e-02  -1.2583332934834162e-02  -1.0974037899182087e-01  -4.0735473604840658e-02  -2.8405804185584076e-02  -1.8452506282580820e-02  -1.3779480671866367e-02  -4.9095525950858761e-02  -1.7728253469061032e-02  -1.3614602318618253e-02  -1.2405602582549946e-02  -3.3087823874725780e-02  -9.2506232649442535e-02  -1.7678255789396347e-02  -1.3090568810079389e-01  -1.3681368063823454e-01  -3.3052135699992949e-02  -1.1105316428808792e-01  -9.5365427676822198e-02  -7.5079001199112344e-02  -1.0921945225922901e-01  -3.3845742833326004e-02  -3.2928764329902840e-02  -1.0712082735194674e-01  -1.3219744775185202e-01  -1.0505294525834125e-01  -1.1283485659628498e-01  -1.3146621405812628e-01  -2.0306453750476187e-02  -1.1234417342208300e-02  -1.3413061383918307e-01  -1.1389837101755741e-02  -1.1630104639308452e-02  -5.7943980234824999e-02  -1.0845781431900842e-01  -2.3024905600330464e-02  -1.3489932707293747e-01  -1.3398798828793931e-02  -1.3510436829073547e-01  -3.6829921343447251e-02  -1.1240175111132103e-02  -1.0083758126397824e-01  -1.0440373725082090e-01  -1.3220111386442782e-01  -9.8427910643218305e-02  -1.4336235843648801e-02  -1.5983788779417391e-02  -3.7118022101603670e-02  -1.2986719396707180e-01  -1.1458598320146932e-02  -2.3302503219690945e-02  -1.0456497730937477e-01  -1.9098792688798952e-02  -1.0295656253044470e-01  -1.1280217513227157e-01  -1.7973508953383902e-02  -1.1435446087941929e-01  -1.1984707766999801e-02  -1.0110329623908969e-01  -9.7497347131182063e-02  -1.0428866854676536e-01  -1.5226777097793003e-02  -2.2154528904389476e-02  -3.3294584257418519e-02  -2.1844831883789093e-02  -1.0401383084828805e-01  -1.1210278200874900e-01  -1.5238693863802843e-02  -1.3077095830570568e-01  -2.4318548446039239e-02  -5.2124970332117986e-02  -1.0354689044252385e-01  -1.0332108582710758e-01  -1.9899850199548721e-02  -1.4145835227911224e-01  -1.6718218645859512e-02  -4.8896641671586631e-02  -1.9735681269041832e-02  -2.2454132872898797e-02  -1.0113944566738102e-01  -1.2109168341559820e-01  -1.0124486434341516e-01  -1.4001218383130390e-01  -1.3941157936734733e-01  -1.6037719069729620e-02  -1.4349597705603413e-02  -1.2021578523632222e-02  -1.4336788975331964e-02  -1.0634649828835206e-01  -1.2699000661499838e-02  -1.7276045990862542e-02  -1.1668968576903425e-01  -9.7379951153739028e-02  -1.3299860179630332e-01  -2.5524356842924617e-02  -2.9669098824978545e-02  -4.6349374566999481e-02  -1.4673931125928571e-02  -4.2143197919531243e-02  -9.8187647003721415e-02  -9.6772697314984016e-02  -1.2085009332183694e-01  -2.9272603626302844e-02  -1.3260393640956919e-01  -5.6140050700843803e-02  -1.3912453853341578e-01  -1.2392069727399237e-01  -1.2534278055225215e-01  -2.5264320735645104e-02  -1.0463805397782834e-01  -1.7770342942840935e-02  -2.3309501909034653e-02  -2.0318511109580589e-02  -2.3518748225053225e-02  -1.8948955719348626e-02  -1.5269060923303606e-02  -1.4039898409941273e-01  -1.5703952960526252e-02  -6.7389015791210843e-02  -1.1241670886342887e-02  -2.7227070165950790e-02  -1.8005032075557530e-02  -1.9587427693226366e-02  -1.4892522801915253e-02  -1.4175193356475416e-01  -9.8041670910108819e-02  -9.9360718976521031e-02  -1.2441995497238822e-02  -3.3992848155225082e-02  -1.8357440119608090e-02  -1.7867882485168352e-02  -1.4414916684742010e-01  -2.3133138948662060e-02  -9.6844499714675389e-02  -1.1646475259807668e-02  -1.3147774550268301e-02  -1.7226240523533293e-02  -5.8780998412186383e-02  -1.2535978293073782e-01  -1.4094873558034471e-01  -4.3953876052691826e-02  -4.0449653825200278e-02  -2.2113823609621341e-02  -1.4335596505058520e-01  -1.7077668523779194e-02  -1.8359590738112091e-02  -1.0223357554961489e-01  -1.2074494506264277e-02  -3.9743988358568988e-02  -1.8133800073933910e-02  -3.5814108719695495e-02  -2.6495857347681513e-02  -2.8976851073622838e-02  -6.1466543861608700e-02  -9.2223223617602448e-02  -1.3078688015070991e-01  -9.3670346500484919e-02  -1.4354766192720664e-01  -1.3534332715264411e-01  -1.3930296894401282e-02  -8.5382458110428924e-02  -2.2635751699914032e-02  -6.3398265277066976e-02  -1.5671378159522964e-02  -2.1654077930101726e-02  -1.3698559184778528e-02  -1.3444573990