<?xml version="1.0"?>
<VTKFile type="UnstructuredGrid"  version="0.1"  >
<UnstructuredGrid>
<Piece  NumberOfPoints="20054" NumberOfCells="39478">
<Points>
<DataArray  type="Float64"  NumberOfComponents="3"  format="ascii">1 0 0  0.9997998037428526 0.02000880895389431 0  0.9991992951284931 0.04000960653046352 0  0.9981987145960756 0.05999438456007805 0  0.9967984627705549 0.07995514128721501 0  0.9949991003022806 0.09988388457430118 0  0.9928013476425149 0.1197726351017051 0  0.9902060847549715 0.139613429562597 0  0.987214350763483 0.1593983238513969 0  0.9838273435359444 0.1791193962445356 0  0.9800464192046954 0.198768750572253 0  0.9758730916235354 0.2183385193801655 0  0.9713090317615876 0.237820867079336 0  0.9663560670342555 0.2572079930835849 0  0.9610161805715396 0.2764921349327862 0  0.9552915104240066 0.2956655714008991 0  0.9491843487067304 0.3147206255874884 0  0.9426971406815462 0.3336496679914983 0  0.9358324837779861 0.3524451195660473 0  0.9285931265532873 0.3710994547530225 0  0.9209819675918909 0.3896052044962556 0  0.9130020543448703 0.4079549592320781 0  0.9046565819097542 0.4261413718560547 0  0.8959488917512338 0.4441571606647087 0  0.8868824703632656 0.4619951122710622 0  0.8774609478731046 0.4796480844928215 0  0.8676880965878291 0.4971090092120542 0  0.8575678294839372 0.5143708952052096 0  0.8471041986406199 0.5314268309423539 0  0.8363013936173391 0.5482699873544935 0  0.8251637397763597 0.5648936205678837 0  0.8136956965509062 0.5812910746042258 0  0.8019018556596399 0.5974557840456699 0  0.7897869392681683 0.6133812766635599 0  0.777355798098326 0.6290611760098652 0  0.7646134094859813 0.6444892039702628 0  0.7515648753881492 0.6596591832778468 0  0.7382154203402046 0.6745650399864606 0  0.7245703893640189 0.6892008059026586 0  0.7106352458278521 0.7035606209753273 0  0.6964155692588616 0.7176387356420051 0  0.6819170531091018 0.7314295131309636 0  0.6671455024759069 0.7449274317181303 0  0.6521068317775753 0.7581270869379442 0  0.6368070623852795 0.7710231937472638 0  0.6212523202121545 0.7836105886414595 0  0.6054488332605282 0.795884231721841 0  0.5894029291282759 0.8078392087135958 0  0.5731210324752972 0.8194707329334278 0  0.5566096624511305 0.8307741472061095 0  0.5398754300847343 0.8417449257291802 0  0.5229250356374803 0.8523786758850435 0  0.5057652659204196 0.8626711399997378 0  0.4884029915768944 0.8726181970476778 0  0.4708451643315825 0.8822158643016828 0  0.45309881420708 0.8914602989276292 0  0.4351710467091336 0.9003477995230937 0  0.4170690399816468 0.9088748075993677 0  0.398800041932607 0.9170379090062476 0  0.3803713673320772 0.9248338352990368 0  0.3617903948834157 0.9322594650472057 0  0.3430645642688987 0.9393118250841893 0  0.3242013731709288 0.9459880916978206 0  0.3052083742700172 0.952285591760924 0  0.2860931722207478 0.9582018038016155 0  0.2668634206069304 0.963734359012881 0  0.2475268188771628 0.9688810422010291 0  0.2280911092620296 0.9736397926726377 0  0.2085640736741707 0.9780087050596407 0  0.1889535305924618 0.9819860300822225 0  0.1692673319315541 0.9855701752492174 0  0.1495133598980264 0.9887597054957302 0  0.1296995238344084 0.9915533437577263 0  0.1098337570523395 0.9939499714833577 0  0.08992401365612977 0.9959486290808237 0  0.06997826535799723 0.9975485163025836 0  0.05000449828625179 0.9987489925657699 0  0.03001070978771124 0.9995495772086734 0  0.01000490522562346 0.9999499496831961 0  -0.01000490522562333 0.9999499496831961 0  -0.03001070978771133 0.9995495772086734 0  -0.05000449828625144 0.9987489925657699 0  -0.06997826535799688 0.9975485163025836 0  -0.08992401365612987 0.9959486290808237 0  -0.1098337570523394 0.9939499714833577 0  -0.1296995238344082 0.9915533437577263 0  -0.1495133598980262 0.9887597054957303 0  -0.1692673319315537 0.9855701752492174 0  -0.1889535305924614 0.9819860300822226 0  -0.2085640736741705 0.9780087050596407 0  -0.2280911092620295 0.9736397926726377 0  -0.2475268188771627 0.9688810422010291 0  -0.2668634206069302 0.9637343590128811 0  -0.2860931722207475 0.9582018038016156 0  -0.3052083742700173 0.9522855917609239 0  -0.3242013731709289 0.9459880916978205 0  -0.3430645642688986 0.9393118250841894 0  -0.3617903948834154 0.9322594650472058 0  -0.380371367332077 0.924833835299037 0  -0.3988000419326071 0.9170379090062476 0  -0.4170690399816465 0.9088748075993678 0  -0.4351710467091335 0.9003477995230939 0  -0.4530988142070799 0.8914602989276292 0  -0.4708451643315824 0.8822158643016829 0  -0.4884029915768945 0.8726181970476778 0  -0.5057652659204197 0.8626711399997378 0  -0.5229250356374801 0.8523786758850437 0  -0.5398754300847342 0.8417449257291804 0  -0.5566096624511303 0.8307741472061098 0  -0.5731210324752971 0.8194707329334279 0  -0.589402929128276 0.8078392087135957 0  -0.6054488332605281 0.7958842317218411 0  -0.6212523202121542 0.7836105886414597 0  -0.6368070623852793 0.7710231937472639 0  -0.652106831777575 0.7581270869379444 0  -0.6671455024759069 0.7449274317181304 0  -0.6819170531091018 0.7314295131309636 0  -0.6964155692588616 0.7176387356420052 0  -0.7106352458278521 0.7035606209753273 0  -0.7245703893640187 0.6892008059026588 0  -0.7382154203402043 0.6745650399864608 0  -0.751564875388149 0.6596591832778469 0  -0.7646134094859813 0.6444892039702628 0  -0.7773557980983258 0.6290611760098654 0  -0.7897869392681683 0.6133812766635599 0  -0.8019018556596398 0.59745578404567 0  -0.8136956965509062 0.5812910746042258 0  -0.8251637397763595 0.5648936205678839 0  -0.836301393617339 0.5482699873544935 0  -0.8471041986406197 0.5314268309423542 0  -0.8575678294839372 0.5143708952052097 0  -0.8676880965878292 0.497109009212054 0  -0.8774609478731045 0.4796480844928216 0  -0.8868824703632656 0.4619951122710621 0  -0.8959488917512338 0.4441571606647088 0  -0.904656581909754 0.426141371856055 0  -0.9130020543448703 0.4079549592320783 0  -0.920981967591891 0.3896052044962555 0  -0.9285931265532872 0.3710994547530226 0  -0.9358324837779861 0.3524451195660473 0  -0.9426971406815462 0.3336496679914984 0  -0.9491843487067303 0.3147206255874888 0  -0.9552915104240065 0.2956655714008993 0  -0.9610161805715396 0.2764921349327862 0  -0.9663560670342555 0.2572079930835851 0  -0.9713090317615876 0.2378208670793361 0  -0.9758730916235353 0.2183385193801658 0  -0.9800464192046954 0.198768750572253 0  -0.9838273435359444 0.1791193962445354 0  -0.987214350763483 0.159398323851397 0  -0.9902060847549714 0.1396134295625972 0  -0.9928013476425149 0.1197726351017052 0  -0.9949991003022804 0.09988388457430147 0  -0.9967984627705549 0.07995514128721509 0  -0.9981987145960756 0.05999438456007793 0  -0.9991992951284931 0.04000960653046362 0  -0.9997998037428526 0.02000880895389464 0  -1 1.224646799147353e-16 0  -0.9997998037428526 -0.0200088089538944 0  -0.9991992951284931 -0.04000960653046338 0  -0.9981987145960756 -0.05999438456007812 0  -0.9967984627705549 -0.07995514128721484 0  -0.9949991003022806 -0.09988388457430078 0  -0.9928013476425149 -0.1197726351017049 0  -0.9902060847549715 -0.1396134295625965 0  -0.9872143507634831 -0.1593983238513963 0  -0.9838273435359444 -0.1791193962445356 0  -0.9800464192046953 -0.1987687505722532 0  -0.9758730916235354 -0.2183385193801655 0  -0.9713090317615876 -0.2378208670793363 0  -0.9663560670342556 -0.2572079930835848 0  -0.9610161805715396 -0.276492134932786 0  -0.9552915104240066 -0.2956655714008991 0  -0.9491843487067305 -0.3147206255874881 0  -0.9426971406815464 -0.3336496679914978 0  -0.9358324837779862 -0.3524451195660471 0  -0.9285931265532875 -0.371099454753022 0  -0.9209819675918909 -0.3896052044962557 0  -0.9130020543448704 -0.407954959232078 0  -0.9046565819097541 -0.4261413718560548 0  -0.8959488917512338 -0.4441571606647086 0  -0.8868824703632655 -0.4619951122710623 0  -0.8774609478731046 -0.4796480844928214 0  -0.8676880965878293 -0.4971090092120538 0  -0.8575678294839373 -0.5143708952052095 0  -0.84710419864062 -0.5314268309423537 0  -0.8363013936173395 -0.5482699873544929 0  -0.8251637397763596 -0.5648936205678838 0  -0.8136956965509061 -0.5812910746042259 0  -0.8019018556596399 -0.5974557840456699 0  -0.7897869392681682 -0.61338127666356 0  -0.777355798098326 -0.6290611760098652 0  -0.7646134094859816 -0.6444892039702625 0  -0.7515648753881492 -0.6596591832778468 0  -0.7382154203402048 -0.6745650399864603 0  -0.7245703893640192 -0.6892008059026583 0  -0.7106352458278522 -0.7035606209753272 0  -0.6964155692588621 -0.7176387356420046 0  -0.6819170531091017 -0.7314295131309637 0  -0.667145502475907 -0.7449274317181303 0  -0.6521068317775756 -0.758127086937944 0  -0.6368070623852792 -0.7710231937472641 0  -0.6212523202121544 -0.7836105886414596 0  -0.6054488332605283 -0.795884231721841 0  -0.5894029291282762 -0.8078392087135956 0  -0.5731210324752977 -0.8194707329334274 0  -0.5566096624511304 -0.8307741472061095 0  -0.5398754300847344 -0.8417449257291802 0  -0.5229250356374798 -0.8523786758850437 0  -0.5057652659204195 -0.8626711399997379 0  -0.4884029915768943 -0.872618197047678 0  -0.4708451643315825 -0.8822158643016828 0  -0.4530988142070805 -0.8914602989276289 0  -0.4351710467091333 -0.900347799523094 0  -0.4170690399816467 -0.9088748075993677 0  -0.3988000419326073 -0.9170379090062475 0  -0.3803713673320777 -0.9248338352990366 0  -0.3617903948834162 -0.9322594650472055 0  -0.3430645642688988 -0.9393118250841893 0  -0.3242013731709283 -0.9459880916978207 0  -0.3052083742700169 -0.9522855917609241 0  -0.2860931722207477 -0.9582018038016155 0  -0.2668634206069305 -0.963734359012881 0  -0.2475268188771631 -0.968881042201029 0  -0.2280911092620301 -0.9736397926726376 0  -0.2085640736741706 -0.9780087050596407 0  -0.1889535305924619 -0.9819860300822225 0  -0.1692673319315544 -0.9855701752492173 0  -0.1495133598980269 -0.9887597054957302 0  -0.1296995238344092 -0.9915533437577262 0  -0.1098337570523396 -0.9939499714833577 0  -0.08992401365612945 -0.9959486290808237 0  -0.06997826535799691 -0.9975485163025836 0  -0.05000449828625168 -0.9987489925657699 0  -0.030010709787
[...]
<PointData  Scalars="Displacement"> 
<DataArray  type="Float64"  Name="Displacement"  format="ascii">0.0000000000000000e+00  0.0000000000000000e+00  0.0000000000000000e+00  0.0000000000000000e+00  0.0000000000000000e+00  0.0000000000000000e+00  0.0000000000000000e+00  0.0000000000000000e+00  0.0000000000000000e+00  0.0000000000000000e+00  0.0000000000000000e+00  0.0000000000000000e+00  0.0000000000000000e+00  0.0000000000000000e+00  0.0000000000000000e+00  0.0000000000000000e+00  0.0000000000000000e+00  0.0000000000000000e+00  0.0000000000000000e+00  0.0000000000000000e+00  0.0000000000000000e+00  0.0000000000000000e+00  0.0000000000000000e+00  0.0000000000000000e+00  0.0000000000000000e+00  0.0000000000000000e+00  0.0000000000000000e+00  0.0000000000000000e+00  0.0000000000000000e+00  0.0000000000000000e+00  0.0000000000000000e+00  0.0000000000000000e+00  0.0000000000000000e+00  0.0000000000000000e+00  0.0000000000000000e+00  0.0000000000000000e+00  0.0000000000000000e+00  0.0000000000000000e+00  0.0000000000000000e+00  0.0000000000000000e+00  0.0000000000000000e+00  0.0000000000000000e+00  0.0000000000000000e+00  0.0000000000000000e+00  0.0000000000000000e+00  0.0000000000000000e+00  0.0000000000000000e+00  0.0000000000000000e+00  0.0000000000000000e+00  0.0000000000000000e+00  0.0000000000000000e+00  0.0000000000000000e+00  0.0000000000000000e+00  0.0000000000000000e+00  0.0000000000000000e+00  0.0000000000000000e+00  0.0000000000000000e+00  0.0000000000000000e+00  0.0000000000000000e+00  0.0000000000000000e+00  0.0000000000000000e+00  0.0000000000000000e+00  0.0000000000000000e+00  0.0000000000000000e+00  0.0000000000000000e+00  0.0000000000000000e+00  0.0000000000000000e+00  0.0000000000000000e+00  0.0000000000000000e+00  0.0000000000000000e+00  0.0000000000000000e+00  0.0000000000000000e+00  0.0000000000000000e+00  0.0000000000000000e+00  0.0000000000000000e+00  0.0000000000000000e+00  0.0000000000000000e+00  0.0000000000000000e+00  0.0000000000000000e+00  0.0000000000000000e+00  0.0000000000000000e+00  0.0000000000000000e+00  0.0000000000000000e+00  0.0000000000000000e+00  0.0000000000000000e+00  0.0000000000000000e+00  0.0000000000000000e+00  0.0000000000000000e+00  0.0000000000000000e+00  0.0000000000000000e+00  0.0000000000000000e+00  0.0000000000000000e+00  0.0000000000000000e+00  0.0000000000000000e+00  0.0000000000000000e+00  0.0000000000000000e+00  0.0000000000000000e+00  0.0000000000000000e+00  0.0000000000000000e+00  0.0000000000000000e+00  0.0000000000000000e+00  0.0000000000000000e+00  0.0000000000000000e+00  0.0000000000000000e+00  0.0000000000000000e+00  0.0000000000000000e+00  0.0000000000000000e+00  0.0000000000000000e+00  0.0000000000000000e+00  0.0000000000000000e+00  0.0000000000000000e+00  0.0000000000000000e+00  0.0000000000000000e+00  0.0000000000000000e+00  0.0000000000000000e+00  0.0000000000000000e+00  0.0000000000000000e+00  0.0000000000000000e+00  0.0000000000000000e+00  0.0000000000000000e+00  0.0000000000000000e+00  0.0000000000000000e+00  0.0000000000000000e+00  0.0000000000000000e+00  0.0000000000000000e+00  0.0000000000000000e+00  0.0000000000000000e+00  0.0000000000000000e+00  0.0000000000000000e+00  0.0000000000000000e+00  0.0000000000000000e+00  0.0000000000000000e+00  0.0000000000000000e+00  0.0000000000000000e+00  0.0000000000000000e+00  0.0000000000000000e+00  0.0000000000000000e+00  0.0000000000000000e+00  0.0000000000000000e+00  0.0000000000000000e+00  0.0000000000000000e+00  0.0000000000000000e+00  0.0000000000000000e+00  0.0000000000000000e+00  0.0000000000000000e+00  0.0000000000000000e+00  0.0000000000000000e+00  0.0000000000000000e+00  0.0000000000000000e+00  0.0000000000000000e+00  0.0000000000000000e+00  0.0000000000000000e+00  0.0000000000000000e+00  0.0000000000000000e+00  0.0000000000000000e+00  0.0000000000000000e+00  0.0000000000000000e+00  0.0000000000000000e+00  0.0000000000000000e+00  0.0000000000000000e+00  0.0000000000000000e+00  0.0000000000000000e+00  0.0000000000000000e+00  0.0000000000000000e+00  0.0000000000000000e+00  0.0000000000000000e+00  0.0000000000000000e+00  0.0000000000000000e+00  0.0000000000000000e+00  0.0000000000000000e+00  0.0000000000000000e+00  0.0000000000000000e+00  0.0000000000000000e+00  0.0000000000000000e+00  0.0000000000000000e+00  0.0000000000000000e+00  0.0000000000000000e+00  0.0000000000000000e+00  0.0000000000000000e+00  0.0000000000000000e+00  0.0000000000000000e+00  0.0000000000000000e+00  0.0000000000000000e+00  0.0000000000000000e+00  0.0000000000000000e+00  0.0000000000000000e+00  0.0000000000000000e+00  0.0000000000000000e+00  0.0000000000000000e+00  0.0000000000000000e+00  0.0000000000000000e+00  0.0000000000000000e+00  0.0000000000000000e+00  0.0000000000000000e+00  0.0000000000000000e+00  0.0000000000000000e+00  0.0000000000000000e+00  0.0000000000000000e+00  0.0000000000000000e+00  0.0000000000000000e+00  0.0000000000000000e+00  0.0000000000000000e+00  0.0000000000000000e+00  0.0000000000000000e+00  0.0000000000000000e+00  0.0000000000000000e+00  0.0000000000000000e+00  0.0000000000000000e+00  0.0000000000000000e+00  0.0000000000000000e+00  0.0000000000000000e+00  0.0000000000000000e+00  0.0000000000000000e+00  0.0000000000000000e+00  0.0000000000000000e+00  0.0000000000000000e+00  0.0000000000000000e+00  0.0000000000000000e+00  0.0000000000000000e+00  0.0000000000000000e+00  0.0000000000000000e+00  0.0000000000000000e+00  0.0000000000000000e+00  0.0000000000000000e+00  0.0000000000000000e+00  0.0000000000000000e+00  0.0000000000000000e+00  0.0000000000000000e+00  0.0000000000000000e+00  0.0000000000000000e+00  0.0000000000000000e+00  0.0000000000000000e+00  0.0000000000000000e+00  0.0000000000000000e+00  0.0000000000000000e+00  0.0000000000000000e+00  0.0000000000000000e+00  0.0000000000000000e+00  0.0000000000000000e+00  0.0000000000000000e+00  0.0000000000000000e+00  0.0000000000000000e+00  0.0000000000000000e+00  0.0000000000000000e+00  0.0000000000000000e+00  0.0000000000000000e+00  0.0000000000000000e+00  0.0000000000000000e+00  0.0000000000000000e+00  0.0000000000000000e+00  0.0000000000000000e+00  0.0000000000000000e+00  0.0000000000000000e+00  0.0000000000000000e+00  0.0000000000000000e+00  0.0000000000000000e+00  0.0000000000000000e+00  0.0000000000000000e+00  0.0000000000000000e+00  0.0000000000000000e+00  0.0000000000000000e+00  0.0000000000000000e+00  0.0000000000000000e+00  0.0000000000000000e+00  0.0000000000000000e+00  0.0000000000000000e+00  0.0000000000000000e+00  0.0000000000000000e+00  0.0000000000000000e+00  0.0000000000000000e+00  0.0000000000000000e+00  0.0000000000000000e+00  0.0000000000000000e+00  0.0000000000000000e+00  0.0000000000000000e+00  0.0000000000000000e+00  0.0000000000000000e+00  0.0000000000000000e+00  0.0000000000000000e+00  0.0000000000000000e+00  0.0000000000000000e+00  0.0000000000000000e+00  0.0000000000000000e+00  0.0000000000000000e+00  0.0000000000000000e+00  0.0000000000000000e+00  0.0000000000000000e+00  0.0000000000000000e+00  0.0000000000000000e+00  0.0000000000000000e+00  0.0000000000000000e+00  0.0000000000000000e+00  0.0000000000000000e+00  0.0000000000000000e+00  0.0000000000000000e+00  0.0000000000000000e+00  0.0000000000000000e+00  0.0000000000000000e+00  0.0000000000000000e+00  0.0000000000000000e+00  0.0000000000000000e+00  0.0000000000000000e+00  0.0000000000000000e+00  0.0000000000000000e+00  0.0000000000000000e+00  0.0000000000000000e+00  0.0000000000000000e+00  0.0000000000000000e+00  0.0000000000000000e+00  0.0000000000000000e+00  0.0000000000000000e+00  0.0000000000000000e+00  0.0000000000000000e+00  0.0000000000000000e+00  3.9647256369314994e-02  -1.6259102687445906e-01  -1.6301537912379369e-01  -1.6266435955542818e-01  -1.6307686483826497e-01  -1.6284294491400553e-01  -1.7113594270836971e-01  -1.0976113601823988e-01  -9.2807798521268914e-02  -5.9071797247881981e-02  -5.9227423329965792e-02  1.2210279956723569e-01  -1.9512662174458264e-02  -1.9564482335484485e-02  1.3008520637248980e-01  1.3130173351496904e-01  1.9452121275209918e-03  1.3835840577422641e-03  2.1397531623559337e-03  2.6397064168569634e-03  4.1032776348123821e-03  3.9249979254755924e-03  3.9732312821771113e-03  -2.9484845625793784e-02  -2.8330738264632810e-02  1.0534092622543266e-01  -9.7353718985295802e-04  1.2478742387135168e-03  2.6550270475046251e-03  -1.4303960890048065e-01  2.2369722844502921e-03  1.2718499027444224e-01  7.5995626502323707e-02  -1.5573474988061603e-01  3.1494656023248652e-04  -6.0097797601295474e-04  -6.9400525842290887e-04  -5.0428077475948299e-04  -5.9348475890063377e-04  -1.7669424654540639e-01  -1.7480625364207847e-01  -1.7232042160613972e-01  -1.7157034230019022e-01  6.2620432373080293e-02  1.1422052310715198e-04  -7.4436420745786590e-05  4.5554118509923234e-04  8.8040143722832641e-04  -1.5591959350982534e-01  -1.6113821694359873e-01  -4.1544768106352409e-02  -1.7683617208089888e-01  -1.6766062528855902e-01  -1.3275709249952031e-01  1.1441788634716811e-03  5.8984761049848067e-02  5.9706039114639019e-04  1.3751345619411044e-03  9.4166784445786439e-02  9.9695829262597948e-04  1.0427979827362776e-03  -6.4219113710913878e-02  1.3357280542842746e-03  1.3132816651941078e-03  9.4319264235081524e-02  1.0413631312130171e-01  -1.3360990235180250e-02  -1.3309323568769868e-01  -4.8848134574593360e-03  5.2613702932768736e-02  9.6323360296992039e-02  -1.5760891163133037e-01  -1.1699986654748921e-01  -1.3035315306059600e-01  -1.3092260806288933e-01  4.9100908852571290e-02  8.9010700266494846e-04  -6.2104032034033349e-02  5.2354897911977769e-02  -7.5568170259486325e-02  6.9536374820934805e-04  -3.7732678098127616e-02  6.3371998017587128e-04  8.9537422160026244e-04  1.5910186383648678e-04  5.0562604084201594e-02  7.9863986349136855e-04  4.7850254595149952e-05  3.3088563077087726e-04  5.3173302175081182e-04  -4.5628917708827002e-02  -5.4065874837290695e-05  -1.1967094245899627e-01  -3.5980639408298169e-04  -4.6414710580237342e-02  6.0662113267852161e-02  8.8352081963825955e-04  -1.8462919782898085e-04  -3.6349505395622317e-02  -1.5845445097743716e-02  -8.5099742991620750e-02  -3.6400285802810066e-02  9.9823675319442270e-06  -1.1357106479692834e-01  -1.7730041766507831e-01  -1.7766598940052428e-01  -9.2839097816989347e-02  -1.6477535730288977e-02  -2.8769673547795572e-02  -1.8763430475435427e-04  -8.0651808377506767e-02  -2.3882280290415738e-05  -4.3054189427877006e-04  -1.5252505581761489e-01  -1.4323433210372447e-01  -1.2279806051159746e-02  -2.5953628940197080e-04  -2.8552090154643542e-04  -1.6010370441412323e-04  5.2739110004771522e-02  -1.0708532798897651e-01  3.8621711573982851e-03  1.3092099508544625e-01  1.3312987443007392e-03  -9.4349176063616166e-04  -5.7706966357091868e-02  -2.4971669525358222e-04  -1.5908254983780455e-04  1.7491154794748093e-03  9.0978226529464068e-04  -6.1357649561352479e-02  -1.5735058220829443e-03  -1.1691297873843139e-01  -1.3646561629882720e-01  -1.5596513510030957e-01  -1.6952284014454616e-02  -3.3413643890931581e-04  1.3014945649429838e-01  5.8277033022470252e-03  1.0779249965304816e-01  4.5749193000393103e-02  1.2936691137000053e-01  1.8842645865377590e-03  -7.9483869300815954e-02  -1.5143074486353517e-01  1.2632132162705054e-03  2.6937632413233962e-03  1.2612990865754042e-01  6.4173931209127566e-02  -9.7383172127901499e-02  6.5895897817087152e-04  -1.4817538964867610e-01  2.8461098638430663e-05  4.0637998357988146e-03  4.0824897248216974e-03  1.1010410185431181e-03  4.4872305068864083e-04  2.7657720728715193e-03  3.1766085314662652e-04  5.5728644662933523e-04  7.5771603911696647e-04  1.7322201741669489e-03  -7.5928597292031635e-02  7.1240420330569393e-04  -5.4532061814776915e-04  -1.6928559800658838e-01  4.0802760790386557e-03  -5.4376043429833299e-04  5.2330318141680045e-04  1.9718180977107494e-03  -1.6218547304830566e-01  4.5241011193167674e-02  2.1660430757175918e-03  -1.6880870939670525e-02  6.7654336471395710e-04  -1.2662819234301667e-01  3.3394031086666847e-04  3.8068037995815729e-03  7.4862352146307565e-04  -1.5149683823782589e-01  4.1733264132659569e-04  -1.7579318183475612e-01  -1.5628957088247980e-01  9.5897869522313509e-02  4.2215402122165708e-04  -1.7754098770136473e-01  -9.3908601961509061e-02  -1.5439143450968518e-01  6.4431362811498958e-04  -1.9556823111671395e-04  6.2927246231601485e-04  6.3281349980786633e-02  1.1010177535535775e-03  8.2447493133124580e-04  -1.7661605096620975e-01  7.8882625268219708e-02  4.4713152187885515e-03  -3.2415205817720114e-04  -1.6975961136076834e-01  -7.4529257136923738e-02  -1.4550671486551223e-01  -1.6392719706513301e-01  -1.5978937951170014e-01  -8.7933225764527057e-02  -1.4479709929611403e-01  -1.8326281409386140e-04  -3.4395654682387679e-04  1.1671981026771797e-01  6.1004384819572579e-04  -7.4899161204295133e-04  2.8550128362603041e-03  6.7846510823138334e-02  4.4498241342840736e-02  4.8145515309553602e-04  7.3608100355086270e-04  2.4752313281619248e-03  -1.4558263505963584e-01  6.2242467010776225e-04  -9.5988991803190205e-02  -6.4467020805052414e-02  9.7932100618559588e-04  -4.0574515658622759e-02  -6.3607156970450940e-02  -1.1109629216701274e-01  -6.7488197519166598e-02  7.5234728662923077e-04  -1.6406300838376842e-02  4.0543847288441510e-04  -6.5180051985606544e-02  6.3401779920063347e-04  -2.6655170887266853e-04  5.4437633026308886e-04  5.2107181650134441e-04  3.5344091563498271e-04  4.2888210269935900e-04  -1.2580897090471777e-01  -1.4824946471701472e-01  -5.8490297754786014e-04  -9.7328511270275550e-04  1.2478403869433650e-01  1.1145528422446044e-01  -9.1206864776421634e-02  -1.2431239289391700e-01  -1.3885506749213076e-04  -1.6604010024462723e-01  7.6174747132982446e-04  5.2107932635506225e-04  5.6239455936801666e-04  1.1583018494739982e-02  -1.4887397054564469e-01  -1.7479875338414758e-01  -1.7616553556425851e-01  1.3077345456622078e-01  4.4068333383025841e-02  -3.7744831328757737e-04  -3.4298950697434709e-02  2.9763433981829348e-03  -1.7712622413215198e-01  2.8312223535069701e-04  1.0486745356714844e-04  2.1208348496094389e-04  -1.8591292320742629e-02  -7.1515694861782090e-04  -1.5880024898618902e-01  -1.4310963516387404e-01  -4.8710507720846126e-02  3.3845480444878989e-04  -3.6976117895282996e-04  -5.0943645178700785e-05  -1.5913845615103347e-01  8.7987826536980754e-06  4.5191918948791947e-03  -1.3603423121858382e-01  4.3149097832702763e-03  -2.5991355109949537e-04  -2.1338656719301331e-02  6.1493544064287177e-02  9.0697551079095509e-02  -6.8212613609038939e-03  3.8671934769908559e-02  1.0491401754042110e-01  1.0307374231152830e-01  8.7664209685089464e-02  -7.0288380537045891e-02  -2.3360723040752897e-02  2.4864236561317325e-03  1.0826308303150131e-01  2.9034879059061680e-04  -9.4655932420576426e-04  -6.3477052583903223e-02  9.1474073081661514e-02  -1.3346836327501690e-01  -8.8223893052601712e-02  -1.7035782047146186e-01  7.5187991465292883e-02  9.4554139834365769e-05  -1.7627816897664722e-01  1.8022207004749692e-04  -5.2162341204348019e-05  4.1379034616830461e-04  5.9973326949554207e-02  4.3200303718502295e-02  8.8859774511294037e-02  1.1776273341569264e-01  -3.8889866540906794e-02  -1.1372473273639293e-01  -2.5123342484298628e-03  -1.5187680190978842e-01  -6.8938419160594552e-02  -9.3046097041395631e-02  -1.7704829308664055e-01  -7.4619805112503906e-02  1.0817496632159118e-01  4.4468944405586814e-03  8.7712644360083344e-02  1.0669110164880607e-01  -1.6209150018454008e-01  -3.0729162637704002e-03  -2.8283446420150762e-02  3.8463965206527167e-04  8.0166632442926007e-04  1.9401798158052610e-03  3.2766983089986592e-05  4.1789424712865814e-02  3.7453959154000665e-05  7.5349333067714074e-05  5.9708168218878936e-04  -6.6449938117163640e-02  5.3997662094784210e-03  1.2985398558926500e-01  -4.3892274551577326e-04  -3.5230487163179090e-03  -7.4627361684817192e-02  -1.7311086763609498e-01  5.7827042305795134e-02  2.8447584228473415e-03  -1.6581566767168013e-01  4.3063666774761547e-02  1.0500971228605881e-01  -4.0140000097858494e-02  -5.3278875024058133e-04  -1.6307674567297326e-01  8.8168139285938396e-04  1.4325872811305873e-03  -4.0988204848018218e-02  1.8266192817413329e-04  -9.1837866980811248e-04  1.9088336571273757e-03  8.5584605856233400e-05  -3.6484863408425210e-02  -4.2612091441607380e-02  1.3603793165752168e-04  1.0448872688952101e-03  -3.9897001453439968e-04  -5.8584371368440667e-04  6.3817518182874059e-04  -1.7391002934241132e-01  4.3431547885230820e-02  9.4748770196576590e-04  5.9270357133790412e-02  7.2613506382587706e-02  4.4382111456102227e-03  -2.4026713787132507e-04  -1.4378118111018795e-01  1.2449293584596143e-03  8.2645129113083138e-02  1.1631584901981126e-03  -1.5686407201550717e-02  4.7457913735332639e-02  -9.6709781807906704e-04  -1.7685635634797712e-04  8.1193007715051058e-04  -1.1647611037987134e-03  6.3830737361435606e-03  -1.1118338892865381e-01  -1.4618364499399565e-02  4.8787858957830205e-04  5.4376424748987198e-02  -1.3902343429155301e-01  -1.1008361631772449e-04  -1.7711010772396663e-01  -7.8111716984793407e-05  -2.0077273011562068e-04  -1.6566529534497343e-01  1.8657818113419514e-04  1.0151968446232482e-01  8.1228085327365469e-05  -1.1030896477683041e-03  2.2983642726170028e-04  -7.1152543397670201e-02  -1.5970226379916866e-01  -3.9970944617699705e-02  -1.6224074597339883e-01  -1.1949840789944133e-04  -6.4469109937591263e-04  -6.9781338697898612e-02  6.2130274985082597e-04  -1.2707992048012998e-01  3.6164518772052704e-03  -7.6348572226419076e-05  9.1408288685755723e-05  -1.7685503773230865e-01  7.2836912021251223e-04  -1.3356656837176167e-01  3.2829430896519299e-03  -1.7707797438013506e-01  -1.5633042508398273e-01  -1.5351391202876889e-04  1.2425321113555363e-04  -1.2368516891952850e-03  1.1056107948267475e-03  1.2155973788059895e-03  -1.1215931607835154e-01  -1.8331815044901187e-05  8.6252850614197907e-02  -1.1448887436151864e-02  -7.5877231555006102e-04  1.2955340893671771e-01  -1.5803199686710398e-01  -3.2721738015856498e-04  -1.1146508428042361e-04  2.2334863238272019e-04  -1.1637423592337079e-01  -6.3983772247966669e-02  1.6903554956214032e-03  -2.0291923959388596e-02  -1.5899178140337345e-03  -8.3499000634683273e-05  -1.4559336785724202e-04  3.0460639109714205e-04  -6.5759841027248148e-02  1.2469630785668870e-03  4.2424989785391646e-03  1.2989161692336080e-03  2.0102423925341686e-04  6.3116756013179920e-04  -1.1694969980104813e-01  -3.3494484119576847e-04  -1.6388608847873357e-01  -1.4429960176654688e-01  -1.7203672942432566e-01  -1.3953030847720249e-01  -1.7583269191694378e-01  -8.0668179383354841e-02  7.8920495016481797e-04  -9.5295636782316631e-02  3.4413419925360474e-03  4.8576428496872409e-02  -9.1960799986345210e-02  -1.6586990178945127e-01  -1.7762879317402186e-01  -5.1167313019422365e-02  8.2379609036407268e-04  -1.5442886205112327e-04  1.7870753551369451e-04  1.3045244052483596e-01  -3.5156700782677922e-02  -1.7357129455318171e-01  -1.6260522003693537e-01  -5.1044364924050019e-04  -1.4564136655835525e-01  -2.2013952141050063e-04  9.7219804112624125e-02  8.5999260301115973e-02  -1.5431469969688086e-01  4.3980020248685298e-03  4.6840966792570794e-04  1.0623819566691552e-03  3.2665667485016770e-04  -3.5686119048738041e-03  -1.6049991454330828e-01  4.7566349044115468e-04  -1.5145030227334302e-01  -1.7397339911017567e-01  -7.3838995700966454e-04  9.4447209383408892e-02  -5.2889193985561078e-03  -1.7322308021017285e-01  -2.0276285376196787e-02  -1.0631020855959385e-01  -6.9847357454062578e-02  4.4497149382342113e-03  -3.5555600674220806e-04  1.0829227918924490e-03  -2.7707355305507805e-04  3.5167840159971997e-04  6.0007338585786217e-04  3.6090391543018498e-02  2.2927308282099363e-04  -1.5279493570038002e-01  4.0921323508864215e-03  -9.2373631995492408e-02  -1.6324291782173009e-01  7.4489700738793865e-02  8.0723752998740806e-04  -9.7183570924021703e-02  6.8062944102793453e-04  -3.1101395230692761e-04  -4.2645420520299689e-05  -1.7744966041170984e-01  2.6362768582057828e-04  3.5664987889718952e-05  -1.7745009989982904e-01  -1.7627987505956455e-01