<?xml version="1.0"?>
<VTKFile type="UnstructuredGrid"  version="0.1"  >
<UnstructuredGrid>
<Piece  NumberOfPoints="20054" NumberOfCells="39478">
<Points>
<DataArray  type="Float64"  NumberOfComponents="3"  format="ascii">1 0 0  0.9997998037428526 0.02000880895389431 0  0.9991992951284931 0.04000960653046352 0  0.9981987145960756 0.05999438456007805 0  0.9967984627705549 0.07995514128721501 0  0.9949991003022806 0.09988388457430118 0  0.9928013476425149 0.1197726351017051 0  0.9902060847549715 0.139613429562597 0  0.987214350763483 0.1593983238513969 0  0.9838273435359444 0.1791193962445356 0  0.9800464192046954 0.198768750572253 0  0.9758730916235354 0.2183385193801655 0  0.9713090317615876 0.237820867079336 0  0.9663560670342555 0.2572079930835849 0  0.9610161805715396 0.2764921349327862 0  0.9552915104240066 0.2956655714008991 0  0.9491843487067304 0.3147206255874884 0  0.9426971406815462 0.3336496679914983 0  0.9358324837779861 0.3524451195660473 0  0.9285931265532873 0.3710994547530225 0  0.9209819675918909 0.3896052044962556 0  0.9130020543448703 0.4079549592320781 0  0.9046565819097542 0.4261413718560547 0  0.8959488917512338 0.4441571606647087 0  0.8868824703632656 0.4619951122710622 0  0.8774609478731046 0.4796480844928215 0  0.8676880965878291 0.4971090092120542 0  0.8575678294839372 0.5143708952052096 0  0.8471041986406199 0.5314268309423539 0  0.8363013936173391 0.5482699873544935 0  0.8251637397763597 0.5648936205678837 0  0.8136956965509062 0.5812910746042258 0  0.8019018556596399 0.5974557840456699 0  0.7897869392681683 0.6133812766635599 0  0.777355798098326 0.6290611760098652 0  0.7646134094859813 0.6444892039702628 0  0.7515648753881492 0.6596591832778468 0  0.7382154203402046 0.6745650399864606 0  0.7245703893640189 0.6892008059026586 0  0.7106352458278521 0.7035606209753273 0  0.6964155692588616 0.7176387356420051 0  0.6819170531091018 0.7314295131309636 0  0.6671455024759069 0.7449274317181303 0  0.6521068317775753 0.7581270869379442 0  0.6368070623852795 0.7710231937472638 0  0.6212523202121545 0.7836105886414595 0  0.6054488332605282 0.795884231721841 0  0.5894029291282759 0.8078392087135958 0  0.5731210324752972 0.8194707329334278 0  0.5566096624511305 0.8307741472061095 0  0.5398754300847343 0.8417449257291802 0  0.5229250356374803 0.8523786758850435 0  0.5057652659204196 0.8626711399997378 0  0.4884029915768944 0.8726181970476778 0  0.4708451643315825 0.8822158643016828 0  0.45309881420708 0.8914602989276292 0  0.4351710467091336 0.9003477995230937 0  0.4170690399816468 0.9088748075993677 0  0.398800041932607 0.9170379090062476 0  0.3803713673320772 0.9248338352990368 0  0.3617903948834157 0.9322594650472057 0  0.3430645642688987 0.9393118250841893 0  0.3242013731709288 0.9459880916978206 0  0.3052083742700172 0.952285591760924 0  0.2860931722207478 0.9582018038016155 0  0.2668634206069304 0.963734359012881 0  0.2475268188771628 0.9688810422010291 0  0.2280911092620296 0.9736397926726377 0  0.2085640736741707 0.9780087050596407 0  0.1889535305924618 0.9819860300822225 0  0.1692673319315541 0.9855701752492174 0  0.1495133598980264 0.9887597054957302 0  0.1296995238344084 0.9915533437577263 0  0.1098337570523395 0.9939499714833577 0  0.08992401365612977 0.9959486290808237 0  0.06997826535799723 0.9975485163025836 0  0.05000449828625179 0.9987489925657699 0  0.03001070978771124 0.9995495772086734 0  0.01000490522562346 0.9999499496831961 0  -0.01000490522562333 0.9999499496831961 0  -0.03001070978771133 0.9995495772086734 0  -0.05000449828625144 0.9987489925657699 0  -0.06997826535799688 0.9975485163025836 0  -0.08992401365612987 0.9959486290808237 0  -0.1098337570523394 0.9939499714833577 0  -0.1296995238344082 0.9915533437577263 0  -0.1495133598980262 0.9887597054957303 0  -0.1692673319315537 0.9855701752492174 0  -0.1889535305924614 0.9819860300822226 0  -0.2085640736741705 0.9780087050596407 0  -0.2280911092620295 0.9736397926726377 0  -0.2475268188771627 0.9688810422010291 0  -0.2668634206069302 0.9637343590128811 0  -0.2860931722207475 0.9582018038016156 0  -0.3052083742700173 0.9522855917609239 0  -0.3242013731709289 0.9459880916978205 0  -0.3430645642688986 0.9393118250841894 0  -0.3617903948834154 0.9322594650472058 0  -0.380371367332077 0.924833835299037 0  -0.3988000419326071 0.9170379090062476 0  -0.4170690399816465 0.9088748075993678 0  -0.4351710467091335 0.9003477995230939 0  -0.4530988142070799 0.8914602989276292 0  -0.4708451643315824 0.8822158643016829 0  -0.4884029915768945 0.8726181970476778 0  -0.5057652659204197 0.8626711399997378 0  -0.5229250356374801 0.8523786758850437 0  -0.5398754300847342 0.8417449257291804 0  -0.5566096624511303 0.8307741472061098 0  -0.5731210324752971 0.8194707329334279 0  -0.589402929128276 0.8078392087135957 0  -0.6054488332605281 0.7958842317218411 0  -0.6212523202121542 0.7836105886414597 0  -0.6368070623852793 0.7710231937472639 0  -0.652106831777575 0.7581270869379444 0  -0.6671455024759069 0.7449274317181304 0  -0.6819170531091018 0.7314295131309636 0  -0.6964155692588616 0.7176387356420052 0  -0.7106352458278521 0.7035606209753273 0  -0.7245703893640187 0.6892008059026588 0  -0.7382154203402043 0.6745650399864608 0  -0.751564875388149 0.6596591832778469 0  -0.7646134094859813 0.6444892039702628 0  -0.7773557980983258 0.6290611760098654 0  -0.7897869392681683 0.6133812766635599 0  -0.8019018556596398 0.59745578404567 0  -0.8136956965509062 0.5812910746042258 0  -0.8251637397763595 0.5648936205678839 0  -0.836301393617339 0.5482699873544935 0  -0.8471041986406197 0.5314268309423542 0  -0.8575678294839372 0.5143708952052097 0  -0.8676880965878292 0.497109009212054 0  -0.8774609478731045 0.4796480844928216 0  -0.8868824703632656 0.4619951122710621 0  -0.8959488917512338 0.4441571606647088 0  -0.904656581909754 0.426141371856055 0  -0.9130020543448703 0.4079549592320783 0  -0.920981967591891 0.3896052044962555 0  -0.9285931265532872 0.3710994547530226 0  -0.9358324837779861 0.3524451195660473 0  -0.9426971406815462 0.3336496679914984 0  -0.9491843487067303 0.3147206255874888 0  -0.9552915104240065 0.2956655714008993 0  -0.9610161805715396 0.2764921349327862 0  -0.9663560670342555 0.2572079930835851 0  -0.9713090317615876 0.2378208670793361 0  -0.9758730916235353 0.2183385193801658 0  -0.9800464192046954 0.198768750572253 0  -0.9838273435359444 0.1791193962445354 0  -0.987214350763483 0.159398323851397 0  -0.9902060847549714 0.1396134295625972 0  -0.9928013476425149 0.1197726351017052 0  -0.9949991003022804 0.09988388457430147 0  -0.9967984627705549 0.07995514128721509 0  -0.9981987145960756 0.05999438456007793 0  -0.9991992951284931 0.04000960653046362 0  -0.9997998037428526 0.02000880895389464 0  -1 1.224646799147353e-16 0  -0.9997998037428526 -0.0200088089538944 0  -0.9991992951284931 -0.04000960653046338 0  -0.9981987145960756 -0.05999438456007812 0  -0.9967984627705549 -0.07995514128721484 0  -0.9949991003022806 -0.09988388457430078 0  -0.9928013476425149 -0.1197726351017049 0  -0.9902060847549715 -0.1396134295625965 0  -0.9872143507634831 -0.1593983238513963 0  -0.9838273435359444 -0.1791193962445356 0  -0.9800464192046953 -0.1987687505722532 0  -0.9758730916235354 -0.2183385193801655 0  -0.9713090317615876 -0.2378208670793363 0  -0.9663560670342556 -0.2572079930835848 0  -0.9610161805715396 -0.276492134932786 0  -0.9552915104240066 -0.2956655714008991 0  -0.9491843487067305 -0.3147206255874881 0  -0.9426971406815464 -0.3336496679914978 0  -0.9358324837779862 -0.3524451195660471 0  -0.9285931265532875 -0.371099454753022 0  -0.9209819675918909 -0.3896052044962557 0  -0.9130020543448704 -0.407954959232078 0  -0.9046565819097541 -0.4261413718560548 0  -0.8959488917512338 -0.4441571606647086 0  -0.8868824703632655 -0.4619951122710623 0  -0.8774609478731046 -0.4796480844928214 0  -0.8676880965878293 -0.4971090092120538 0  -0.8575678294839373 -0.5143708952052095 0  -0.84710419864062 -0.5314268309423537 0  -0.8363013936173395 -0.5482699873544929 0  -0.8251637397763596 -0.5648936205678838 0  -0.8136956965509061 -0.5812910746042259 0  -0.8019018556596399 -0.5974557840456699 0  -0.7897869392681682 -0.61338127666356 0  -0.777355798098326 -0.6290611760098652 0  -0.7646134094859816 -0.6444892039702625 0  -0.7515648753881492 -0.6596591832778468 0  -0.7382154203402048 -0.6745650399864603 0  -0.7245703893640192 -0.6892008059026583 0  -0.7106352458278522 -0.7035606209753272 0  -0.6964155692588621 -0.7176387356420046 0  -0.6819170531091017 -0.7314295131309637 0  -0.667145502475907 -0.7449274317181303 0  -0.6521068317775756 -0.758127086937944 0  -0.6368070623852792 -0.7710231937472641 0  -0.6212523202121544 -0.7836105886414596 0  -0.6054488332605283 -0.795884231721841 0  -0.5894029291282762 -0.8078392087135956 0  -0.5731210324752977 -0.8194707329334274 0  -0.5566096624511304 -0.8307741472061095 0  -0.5398754300847344 -0.8417449257291802 0  -0.5229250356374798 -0.8523786758850437 0  -0.5057652659204195 -0.8626711399997379 0  -0.4884029915768943 -0.872618197047678 0  -0.4708451643315825 -0.8822158643016828 0  -0.4530988142070805 -0.8914602989276289 0  -0.4351710467091333 -0.900347799523094 0  -0.4170690399816467 -0.9088748075993677 0  -0.3988000419326073 -0.9170379090062475 0  -0.3803713673320777 -0.9248338352990366 0  -0.3617903948834162 -0.9322594650472055 0  -0.3430645642688988 -0.9393118250841893 0  -0.3242013731709283 -0.9459880916978207 0  -0.3052083742700169 -0.9522855917609241 0  -0.2860931722207477 -0.9582018038016155 0  -0.2668634206069305 -0.963734359012881 0  -0.2475268188771631 -0.968881042201029 0  -0.2280911092620301 -0.9736397926726376 0  -0.2085640736741706 -0.9780087050596407 0  -0.1889535305924619 -0.9819860300822225 0  -0.1692673319315544 -0.9855701752492173 0  -0.1495133598980269 -0.9887597054957302 0  -0.1296995238344092 -0.9915533437577262 0  -0.1098337570523396 -0.9939499714833577 0  -0.08992401365612945 -0.9959486290808237 0  -0.06997826535799691 -0.9975485163025836 0  -0.05000449828625168 -0.9987489925657699 0  -0.0300107
[...]
<PointData  Scalars="Displacement"> 
<DataArray  type="Float64"  Name="Displacement"  format="ascii">0.0000000000000000e+00  0.0000000000000000e+00  0.0000000000000000e+00  0.0000000000000000e+00  0.0000000000000000e+00  0.0000000000000000e+00  0.0000000000000000e+00  0.0000000000000000e+00  0.0000000000000000e+00  0.0000000000000000e+00  0.0000000000000000e+00  0.0000000000000000e+00  0.0000000000000000e+00  0.0000000000000000e+00  0.0000000000000000e+00  0.0000000000000000e+00  0.0000000000000000e+00  0.0000000000000000e+00  0.0000000000000000e+00  0.0000000000000000e+00  0.0000000000000000e+00  0.0000000000000000e+00  0.0000000000000000e+00  0.0000000000000000e+00  0.0000000000000000e+00  0.0000000000000000e+00  0.0000000000000000e+00  0.0000000000000000e+00  0.0000000000000000e+00  0.0000000000000000e+00  0.0000000000000000e+00  0.0000000000000000e+00  0.0000000000000000e+00  0.0000000000000000e+00  0.0000000000000000e+00  0.0000000000000000e+00  0.0000000000000000e+00  0.0000000000000000e+00  0.0000000000000000e+00  0.0000000000000000e+00  0.0000000000000000e+00  0.0000000000000000e+00  0.0000000000000000e+00  0.0000000000000000e+00  0.0000000000000000e+00  0.0000000000000000e+00  0.0000000000000000e+00  0.0000000000000000e+00  0.0000000000000000e+00  0.0000000000000000e+00  0.0000000000000000e+00  0.0000000000000000e+00  0.0000000000000000e+00  0.0000000000000000e+00  0.0000000000000000e+00  0.0000000000000000e+00  0.0000000000000000e+00  0.0000000000000000e+00  0.0000000000000000e+00  0.0000000000000000e+00  0.0000000000000000e+00  0.0000000000000000e+00  0.0000000000000000e+00  0.0000000000000000e+00  0.0000000000000000e+00  0.0000000000000000e+00  0.0000000000000000e+00  0.0000000000000000e+00  0.0000000000000000e+00  0.0000000000000000e+00  0.0000000000000000e+00  0.0000000000000000e+00  0.0000000000000000e+00  0.0000000000000000e+00  0.0000000000000000e+00  0.0000000000000000e+00  0.0000000000000000e+00  0.0000000000000000e+00  0.0000000000000000e+00  0.0000000000000000e+00  0.0000000000000000e+00  0.0000000000000000e+00  0.0000000000000000e+00  0.0000000000000000e+00  0.0000000000000000e+00  0.0000000000000000e+00  0.0000000000000000e+00  0.0000000000000000e+00  0.0000000000000000e+00  0.0000000000000000e+00  0.0000000000000000e+00  0.0000000000000000e+00  0.0000000000000000e+00  0.0000000000000000e+00  0.0000000000000000e+00  0.0000000000000000e+00  0.0000000000000000e+00  0.0000000000000000e+00  0.0000000000000000e+00  0.0000000000000000e+00  0.0000000000000000e+00  0.0000000000000000e+00  0.0000000000000000e+00  0.0000000000000000e+00  0.0000000000000000e+00  0.0000000000000000e+00  0.0000000000000000e+00  0.0000000000000000e+00  0.0000000000000000e+00  0.0000000000000000e+00  0.0000000000000000e+00  0.0000000000000000e+00  0.0000000000000000e+00  0.0000000000000000e+00  0.0000000000000000e+00  0.0000000000000000e+00  0.0000000000000000e+00  0.0000000000000000e+00  0.0000000000000000e+00  0.0000000000000000e+00  0.0000000000000000e+00  0.0000000000000000e+00  0.0000000000000000e+00  0.0000000000000000e+00  0.0000000000000000e+00  0.0000000000000000e+00  0.0000000000000000e+00  0.0000000000000000e+00  0.0000000000000000e+00  0.0000000000000000e+00  0.0000000000000000e+00  0.0000000000000000e+00  0.0000000000000000e+00  0.0000000000000000e+00  0.0000000000000000e+00  0.0000000000000000e+00  0.0000000000000000e+00  0.0000000000000000e+00  0.0000000000000000e+00  0.0000000000000000e+00  0.0000000000000000e+00  0.0000000000000000e+00  0.0000000000000000e+00  0.0000000000000000e+00  0.0000000000000000e+00  0.0000000000000000e+00  0.0000000000000000e+00  0.0000000000000000e+00  0.0000000000000000e+00  0.0000000000000000e+00  0.0000000000000000e+00  0.0000000000000000e+00  0.0000000000000000e+00  0.0000000000000000e+00  0.0000000000000000e+00  0.0000000000000000e+00  0.0000000000000000e+00  0.0000000000000000e+00  0.0000000000000000e+00  0.0000000000000000e+00  0.0000000000000000e+00  0.0000000000000000e+00  0.0000000000000000e+00  0.0000000000000000e+00  0.0000000000000000e+00  0.0000000000000000e+00  0.0000000000000000e+00  0.0000000000000000e+00  0.0000000000000000e+00  0.0000000000000000e+00  0.0000000000000000e+00  0.0000000000000000e+00  0.0000000000000000e+00  0.0000000000000000e+00  0.0000000000000000e+00  0.0000000000000000e+00  0.0000000000000000e+00  0.0000000000000000e+00  0.0000000000000000e+00  0.0000000000000000e+00  0.0000000000000000e+00  0.0000000000000000e+00  0.0000000000000000e+00  0.0000000000000000e+00  0.0000000000000000e+00  0.0000000000000000e+00  0.0000000000000000e+00  0.0000000000000000e+00  0.0000000000000000e+00  0.0000000000000000e+00  0.0000000000000000e+00  0.0000000000000000e+00  0.0000000000000000e+00  0.0000000000000000e+00  0.0000000000000000e+00  0.0000000000000000e+00  0.0000000000000000e+00  0.0000000000000000e+00  0.0000000000000000e+00  0.0000000000000000e+00  0.0000000000000000e+00  0.0000000000000000e+00  0.0000000000000000e+00  0.0000000000000000e+00  0.0000000000000000e+00  0.0000000000000000e+00  0.0000000000000000e+00  0.0000000000000000e+00  0.0000000000000000e+00  0.0000000000000000e+00  0.0000000000000000e+00  0.0000000000000000e+00  0.0000000000000000e+00  0.0000000000000000e+00  0.0000000000000000e+00  0.0000000000000000e+00  0.0000000000000000e+00  0.0000000000000000e+00  0.0000000000000000e+00  0.0000000000000000e+00  0.0000000000000000e+00  0.0000000000000000e+00  0.0000000000000000e+00  0.0000000000000000e+00  0.0000000000000000e+00  0.0000000000000000e+00  0.0000000000000000e+00  0.0000000000000000e+00  0.0000000000000000e+00  0.0000000000000000e+00  0.0000000000000000e+00  0.0000000000000000e+00  0.0000000000000000e+00  0.0000000000000000e+00  0.0000000000000000e+00  0.0000000000000000e+00  0.0000000000000000e+00  0.0000000000000000e+00  0.0000000000000000e+00  0.0000000000000000e+00  0.0000000000000000e+00  0.0000000000000000e+00  0.0000000000000000e+00  0.0000000000000000e+00  0.0000000000000000e+00  0.0000000000000000e+00  0.0000000000000000e+00  0.0000000000000000e+00  0.0000000000000000e+00  0.0000000000000000e+00  0.0000000000000000e+00  0.0000000000000000e+00  0.0000000000000000e+00  0.0000000000000000e+00  0.0000000000000000e+00  0.0000000000000000e+00  0.0000000000000000e+00  0.0000000000000000e+00  0.0000000000000000e+00  0.0000000000000000e+00  0.0000000000000000e+00  0.0000000000000000e+00  0.0000000000000000e+00  0.0000000000000000e+00  0.0000000000000000e+00  0.0000000000000000e+00  0.0000000000000000e+00  0.0000000000000000e+00  0.0000000000000000e+00  0.0000000000000000e+00  0.0000000000000000e+00  0.0000000000000000e+00  0.0000000000000000e+00  0.0000000000000000e+00  0.0000000000000000e+00  0.0000000000000000e+00  0.0000000000000000e+00  0.0000000000000000e+00  0.0000000000000000e+00  0.0000000000000000e+00  0.0000000000000000e+00  0.0000000000000000e+00  0.0000000000000000e+00  0.0000000000000000e+00  0.0000000000000000e+00  0.0000000000000000e+00  0.0000000000000000e+00  0.0000000000000000e+00  0.0000000000000000e+00  0.0000000000000000e+00  0.0000000000000000e+00  0.0000000000000000e+00  0.0000000000000000e+00  0.0000000000000000e+00  0.0000000000000000e+00  0.0000000000000000e+00  0.0000000000000000e+00  0.0000000000000000e+00  0.0000000000000000e+00  0.0000000000000000e+00  0.0000000000000000e+00  0.0000000000000000e+00  0.0000000000000000e+00  0.0000000000000000e+00  0.0000000000000000e+00  0.0000000000000000e+00  0.0000000000000000e+00  0.0000000000000000e+00  0.0000000000000000e+00  0.0000000000000000e+00  0.0000000000000000e+00  0.0000000000000000e+00  0.0000000000000000e+00  0.0000000000000000e+00  1.7000566422825443e-02  3.0328098362486268e-02  3.0127863386608247e-02  3.0034722940894491e-02  2.9671940917847882e-02  3.0120481207765136e-02  3.9110723184378429e-02  5.1948718196396099e-02  5.9897571068043720e-02  7.8367721766684661e-02  7.8782598025130060e-02  2.1150707924885961e-02  9.8257228812411432e-02  9.8208439763301014e-02  2.0713659298948497e-02  2.0897172427024775e-02  9.8572407526423475e-02  9.9550299935804901e-02  9.7787350496836109e-02  9.7723264961313075e-02  9.4510571709212496e-02  9.4453004586208117e-02  9.5543312287971804e-02  2.5618455963378799e-02  2.5166161015664695e-02  1.9687251828209778e-02  1.0023535069639268e-01  7.1031351031075593e-02  7.7759798590514753e-02  2.9612167732562346e-02  7.6656132157051665e-02  2.0781344395273026e-02  1.9323005693558912e-02  2.9938164429029614e-02  6.1759861422659462e-02  3.8407987895314806e-02  3.3274177325391625e-02  3.1306012896319409e-02  3.0665097693900228e-02  3.7007473825554103e-02  3.8139957245264672e-02  3.8767426556933091e-02  3.9601046120515355e-02  1.8905850943337191e-02  2.2536365222374656e-02  1.7517978768274774e-02  1.2039521661497802e-02  1.2373580997997973e-02  4.0824329711282525e-02  3.9767802881327065e-02  8.8148331483217574e-02  3.6910749930003851e-02  3.9694817905204891e-02  2.8919123412518993e-02  -7.7220487709027241e-03  1.8594489318541525e-02  1.5266673059093372e-02  -7.1478250609030491e-03  2.1940158743693591e-02  -1.1841276843992887e-02  -9.6251684234315432e-03  7.5233438727389620e-02  -1.3876078848765299e-02  -5.7255563963669555e-03  2.2652977512247225e-02  1.9559816781624901e-02  2.4847274821778495e-02  2.8955521335893374e-02  2.4015707218703032e-02  1.8289049270618946e-02  2.2062908651725239e-02  3.9966736920104072e-02  4.8533273601749166e-02  4.4427497290756478e-02  4.4079495799963557e-02  2.2668086970339656e-02  -1.6507404786095751e-02  2.5299894889971787e-02  2.2193425974087778e-02  6.9604323381341385e-02  -2.6372399553066733e-02  2.4944892892133020e-02  -2.9831837758139884e-02  -2.7745421961337596e-02  -3.3640141473393163e-02  1.8210138763917725e-02  -3.1269638317338547e-02  -3.6666062578353441e-02  -3.5841657256344243e-02  2.4185812432427806e-02  8.6201370641744171e-02  -3.9992962662237466e-02  4.7540230221007410e-02  -4.1002552308140899e-02  8.5488467300542881e-02  1.8913219704491915e-02  -3.0844140400988328e-02  -4.3450448939384927e-02  9.0757891361328558e-02  9.9332730185926518e-02  6.4387591252319673e-02  9.0430968495469624e-02  -4.4067424286560089e-02  2.7491436671966362e-02  3.4212137042398082e-02  3.4950624871958373e-02  2.6188536429138150e-02  9.9168841324261722e-02  9.4498724818967261e-02  -5.2595754302748807e-02  2.5575103260225180e-02  -5.2825479503279885e-02  -5.0304221303315633e-02  4.0631686883800922e-02  4.1839970037209406e-02  9.9898824492175853e-02  -5.5064200526388565e-02  -4.6321856906486249e-02  -4.7536218305086947e-02  1.8328306022593489e-02  2.7028555207212854e-02  8.5613868203744559e-02  2.1280439800616249e-02  -9.7564633947854196e-03  1.0016957955328507e-01  7.9016297935810095e-02  -4.8743031804048209e-02  -5.6706315238799064e-02  9.9319127442915850e-02  1.0004336848635111e-01  7.7107324589572979e-02  1.0061178808410982e-01  4.8541508662976220e-02  2.9130351246213739e-02  4.0053345454593728e-02  9.8821807315054119e-02  -5.1326412201467692e-02  2.1038757741504963e-02  2.4451198095947674e-02  2.1436855016334171e-02  1.7716715944945980e-02  2.0791842316968664e-02  7.2725733580299698e-02  2.5687478518316209e-02  4.0446857359665682e-02  7.3900273815923484e-02  7.8806368984347605e-02  2.0836767500591234e-02  1.8716389789167391e-02  5.7584091536626289e-02  -6.1308359229778703e-02  4.0982664972242504e-02  2.4217837357517678e-02  8.8884151975978584e-02  8.9253964318849341e-02  -6.1114864624862864e-03  -6.0880067926148966e-02  8.0254370839996647e-02  -6.0570579157956390e-02  -6.1146743587520355e-02  -6.1653212173236722e-02  7.6202953397895817e-02  6.9309233587599925e-02  -6.0255452239866454e-02  4.5706972665543688e-02  3.0239926883685219e-02  8.9878906087073662e-02  -4.5539822986819772e-02  -6.1499403649316622e-02  7.3923862292630163e-02  3.9636955356215878e-02  1.7022819917020246e-02  7.4931452556871656e-02  2.4559395390177621e-02  -6.1546803048647229e-02  2.8567484359171509e-02  -6.1667145774774570e-02  9.5696919807076661e-02  -6.1527445479767705e-02  2.9645167230710291e-02  6.6328532366912621e-02  3.2481711970242286e-02  4.0312900903173687e-02  1.8897383187700359e-02  -6.0927969163228547e-02  3.6163481371558996e-02  5.9427871440728475e-02  2.9897749135373165e-02  -6.1658064122283585e-02  2.6251664209436490e-02  -6.1794392457203702e-02  1.8769217367549600e-02  -6.1319612786073251e-02  -6.1692230063819298e-02  3.3318859466449489e-02  2.2823091594398714e-02  9.2880966529245115e-02  6.0613685816706571e-02  3.0593215089879083e-02  6.9636560445855644e-02  4.1455197618247952e-02  3.9611238774936205e-02  2.9983417455809090e-02  6.2834860636749021e-02  4.1615232042201057e-02  5.9943008348498257e-02  5.7890988218237363e-02  1.9928852243742388e-02  -3.0596255798960859e-02  5.7168695136282546e-02  9.8156180595493886e-02  1.8504133726960907e-02  1.7910664554279133e-02  -6.0393570667412237e-02  -6.0919149768821408e-02  7.7098892340465144e-02  2.9464428071921123e-02  -6.1451743142330428e-02  5.8161882148486090e-02  7.5101102536347691e-02  -1.3859552965141231e-03  8.8786033509494752e-02  2.5476056752345405e-02  5.1117110061086636e-02  7.3762260388963649e-02  -6.1689515894566845e-02  9.8997296722726918e-02  -5.9298608258241681e-02  7.4616250705955484e-02  -6.0721079702545235e-02  -5.7111789239352256e-02  -6.1588182405120706e-02  -5.9418997425730612e-02  1.7075295839183696e-02  -6.0233036142942079e-02  2.8377085154519442e-02  4.1254673879824351e-02  3.7984814094057941e-02  4.1577297197589985e-02  2.0831295206562607e-02  2.1706361341083419e-02  6.0926649892095487e-02  4.6193566521375226e-02  -5.6328303708659100e-02  2.9921912768263909e-02  -5.9614185452739603e-02  -5.9817352139068393e-02  -5.8962511593765039e-02  2.4348494460419430e-02  3.0093930403303926e-02  3.7991686131738492e-02  3.7525439842759391e-02  2.1373670180586099e-02  1.8410535192795535e-02  2.6921537279415250e-02  2.5386149774782010e-02  8.0636713071082555e-02  3.5159203924112523e-02  -5.9802561822598667e-02  -5.8713919940230473e-02  -5.9846891964592711e-02  9.8554366216031572e-02  4.1093163225125309e-02  4.0072617230224407e-02  2.9227364902640853e-02  2.5107831553006194e-02  1.7311493655839515e-02  -5.1240594394254234e-02  -5.9416296367149818e-02  4.0560245726062275e-02  -5.7563396913288212e-02  2.3872195656188259e-02  2.9087649301719941e-02  9.4226271109814283e-02  5.8438917982900671e-02  9.7636015340460389e-02  2.2502795206322909e-02  2.2205200995363102e-02  2.4277609779021041e-02  2.2773726924991952e-02  2.1067712868579523e-02  1.9553901361953833e-02  1.9129064672029579e-02  7.2420938684333983e-02  9.6894782144984440e-02  9.9081354548366127e-02  2.1604491998604147e-02  -6.0122334038973220e-02  4.3936659448234452e-02  2.5553717413941333e-02  1.9496172760052603e-02  2.8961936238871437e-02  6.2214743773135232e-02  3.8979455357013991e-02  1.9310794331420054e-02  -5.6423308144417761e-02  3.7057789150903075e-02  -5.7561970749495824e-02  -5.8063476305973548e-02  -5.9046606927598506e-02  1.8733519763216001e-02  1.8291943942563237e-02  2.2557677702565431e-02  2.0419904821065135e-02  8.9627064671763582e-02  4.9920062421424195e-02  1.0099359688764528e-01  4.0731680414854088e-02  7.2799331127653522e-02  6.0077327359348502e-02  3.6276383263431973e-02  7.0629939814668544e-02  2.1493403699133093e-02  9.1624340534331841e-02  1.9605642969425956e-02  1.9743751337134328e-02  3.9783863699092196e-02  1.0089859644805434e-01  9.4239751812440126e-02  -5.6774548191831302e-02  6.6472144895700247e-02  7.5909603080465002e-02  -5.4816064293096226e-02  2.3151716517427777e-02  -5.5049899210379512e-02  -5.4633374604431580e-02  1.4958971510231556e-02  2.5097114804006494e-02  2.3943130805358405e-02  2.1007651410780395e-02  -5.4613797548917417e-02  1.0089929794499709e-01  6.9917670774571589e-02  3.1292008595086025e-02  2.2807382147672101e-02  9.7472337035290402e-02  2.9814282667557188e-02  2.2669299934117815e-02  1.9722706703319291e-02  8.8567810568546818e-02  5.4711497750057486e-02  3.0486772723798041e-02  3.0765919797092990e-03  -8.5621993776554533e-03  8.8397401709598325e-02  -5.5581026379997782e-02  5.1008714751114848e-02  7.5241454314381992e-02  -5.4619207987694408e-02  9.0605094521438084e-02  8.7821351045321794e-02  -5.3457829327688437e-02  1.1480398003017216e-03  -5.2038319710669953e-02  2.9546364457763069e-02  2.0567077185012204e-03  3.7840380348036086e-02  1.7760056114809797e-02  -2.9759063529975513e-03  1.9212617883485491e-02  1.8942214784391152e-02  9.1540916232828978e-02  -5.4278038594778005e-02  4.1456448832723571e-02  -5.0820418919572943e-03  2.2396746945332103e-02  -4.2545344658333813e-03  9.9334675161861216e-02  1.8148398578454163e-02  4.5035849491884217e-02  -5.2397364928055565e-02  -6.1775480417093777e-02  4.7288817096071502e-02  2.3562748134975119e-02  2.7439434968297344e-02  9.9223708449522344e-02  -6.1359092902542503e-02  1.8603326417619973e-02  4.2525298361317097e-02  -5.2143670613133880e-02  3.3499373981691144e-02  -5.1500464811076549e-02  3.0349652802323636e-02  2.9844482741779949e-02  -5.7021370478000891e-02  1.9777231370319902e-02  -5.0816918043229978e-02  4.8772703201477551e-02  -5.2218580834368651e-02  2.5522541616937375e-02  3.9960791116228245e-02  8.8780994525029355e-02  3.9501636062677682e-02  -5.2073650432013147e-02  3.0704355561960148e-02  2.5202227429061898e-02  -6.1566653237680881e-02  4.4850588269143780e-02  9.5426318797317722e-02  -5.1625170989942751e-02  -5.1893081307575729e-02  3.7117483866534497e-02  -2.2670988716672544e-02  2.9204832711028719e-02  9.7520116978927096e-02  3.5858672442242542e-02  3.9725267117822052e-02  -5.0692246119815008e-02  1.8797257710045274e-02  4.4288581359581657e-02  -1.7080077263427491e-02  -1.5542352232978928e-02  2.7170613983820813e-02  2.4295471120689426e-02  1.9777780138941433e-02  2.4715968951514674e-02  3.7536148408243764e-02  2.1056784263590901e-02  3.0165424998279327e-02  2.4815071423759223e-02  -4.8187826733275312e-02  -6.1129050970903202e-02  4.9066194736080516e-02  7.5592140315634423e-02  9.8774594543033112e-02  2.5468738629013159e-02  1.0081060625029978e-01  -4.9143910600525129e-02  -4.8620347462653118e-02  -5.9378232696027114e-02  7.4658721343036943e-02  -1.1440230332175651e-05  9.2957412873941145e-02  -1.4821434010051870e-02  1.4256041480036310e-02  1.2292574966887479e-02  4.8300883927553488e-02  4.0355300418315712e-02  3.0623313009645662e-02  4.1432894242826430e-02  3.8761894449067059e-02  4.2120360384469140e-02  3.2294779742279831e-02  2.5678139539264067e-02  -1.9137889710499161e-02  2.6032114673719034e-02  8.3558182840644438e-02  1.7470248126193792e-02  6.0480443409056332e-02  3.0070959491072115e-02  3.5459650679359141e-02  2.5043538246293118e-02  -2.4039155949141820e-02  -4.8790093550116778e-02  -4.9714523061605349e-02  2.1205129737287266e-02  9.1163063725074558e-02  3.1442310749247922e-02  3.0261725946412403e-02  -4.7934304430115253e-02  4.1637333555398323e-02  -4.8225455491431819e-02  1.9536549833921106e-02  2.2305443337503804e-02  2.9977035377107376e-02  9.1122171032172336e-02  1.2442896124205481e-02  -2.0759913336859715e-02  1.0010766369267424e-01  1.0115226864430472e-01  3.9941732195645320e-02  -3.2473996639893657e-02  3.0233324217054210e-02  3.1872446903718148e-02  4.2964412096889386e-02  1.9363960643203126e-02  1.0098601926052753e-01  3.1572122808801950e-02  9.8178085607195653e-02  5.3227814842104523e-02  7.2474888673488280e-02  8.8509149372220056e-02  -4.6494083413543184e-02  3.4606904701481381e-03  -4.6910590772945591e-02  -3.3231431781823348e-02  -6.0494635630424648e-02  2.3254982504707290e-02  6.3148206267158655e-02  4.0517803789761123e-02  8.6797584456047183e-02  2.6274475445182792e-02  3.9778374212820072e-02  2.3026420538943104e-02  -6.1288659090645389e-02  2.6313565279976157e-02  -6.0817543954673030e-02  -4.4906761721454538e-02  -5.1829874917908511e-02  3.4540206969694211e-02  -3.6078159451967073e-02  -4.7172743205495631e-02  3.5519461307604396e-02  3.7335656077266681e-02  5.8249280398102482e-02  8.3851215829605016e-02  -3.3720973211118811e-02  8.5289987044154469e-02  9.9841907536129301e-02  6.476810292889334