<?xml version="1.0"?>
<VTKFile type="UnstructuredGrid"  version="0.1"  >
<UnstructuredGrid>
<Piece  NumberOfPoints="20054" NumberOfCells="39478">
<Points>
<DataArray  type="Float64"  NumberOfComponents="3"  format="ascii">1 0 0  0.9997998037428526 0.02000880895389431 0  0.9991992951284931 0.04000960653046352 0  0.9981987145960756 0.05999438456007805 0  0.9967984627705549 0.07995514128721501 0  0.9949991003022806 0.09988388457430118 0  0.9928013476425149 0.1197726351017051 0  0.9902060847549715 0.139613429562597 0  0.987214350763483 0.1593983238513969 0  0.9838273435359444 0.1791193962445356 0  0.9800464192046954 0.198768750572253 0  0.9758730916235354 0.2183385193801655 0  0.9713090317615876 0.237820867079336 0  0.9663560670342555 0.2572079930835849 0  0.9610161805715396 0.2764921349327862 0  0.9552915104240066 0.2956655714008991 0  0.9491843487067304 0.3147206255874884 0  0.9426971406815462 0.3336496679914983 0  0.9358324837779861 0.3524451195660473 0  0.9285931265532873 0.3710994547530225 0  0.9209819675918909 0.3896052044962556 0  0.9130020543448703 0.4079549592320781 0  0.9046565819097542 0.4261413718560547 0  0.8959488917512338 0.4441571606647087 0  0.8868824703632656 0.4619951122710622 0  0.8774609478731046 0.4796480844928215 0  0.8676880965878291 0.4971090092120542 0  0.8575678294839372 0.5143708952052096 0  0.8471041986406199 0.5314268309423539 0  0.8363013936173391 0.5482699873544935 0  0.8251637397763597 0.5648936205678837 0  0.8136956965509062 0.5812910746042258 0  0.8019018556596399 0.5974557840456699 0  0.7897869392681683 0.6133812766635599 0  0.777355798098326 0.6290611760098652 0  0.7646134094859813 0.6444892039702628 0  0.7515648753881492 0.6596591832778468 0  0.7382154203402046 0.6745650399864606 0  0.7245703893640189 0.6892008059026586 0  0.7106352458278521 0.7035606209753273 0  0.6964155692588616 0.7176387356420051 0  0.6819170531091018 0.7314295131309636 0  0.6671455024759069 0.7449274317181303 0  0.6521068317775753 0.7581270869379442 0  0.6368070623852795 0.7710231937472638 0  0.6212523202121545 0.7836105886414595 0  0.6054488332605282 0.795884231721841 0  0.5894029291282759 0.8078392087135958 0  0.5731210324752972 0.8194707329334278 0  0.5566096624511305 0.8307741472061095 0  0.5398754300847343 0.8417449257291802 0  0.5229250356374803 0.8523786758850435 0  0.5057652659204196 0.8626711399997378 0  0.4884029915768944 0.8726181970476778 0  0.4708451643315825 0.8822158643016828 0  0.45309881420708 0.8914602989276292 0  0.4351710467091336 0.9003477995230937 0  0.4170690399816468 0.9088748075993677 0  0.398800041932607 0.9170379090062476 0  0.3803713673320772 0.9248338352990368 0  0.3617903948834157 0.9322594650472057 0  0.3430645642688987 0.9393118250841893 0  0.3242013731709288 0.9459880916978206 0  0.3052083742700172 0.952285591760924 0  0.2860931722207478 0.9582018038016155 0  0.2668634206069304 0.963734359012881 0  0.2475268188771628 0.9688810422010291 0  0.2280911092620296 0.9736397926726377 0  0.2085640736741707 0.9780087050596407 0  0.1889535305924618 0.9819860300822225 0  0.1692673319315541 0.9855701752492174 0  0.1495133598980264 0.9887597054957302 0  0.1296995238344084 0.9915533437577263 0  0.1098337570523395 0.9939499714833577 0  0.08992401365612977 0.9959486290808237 0  0.06997826535799723 0.9975485163025836 0  0.05000449828625179 0.9987489925657699 0  0.03001070978771124 0.9995495772086734 0  0.01000490522562346 0.9999499496831961 0  -0.01000490522562333 0.9999499496831961 0  -0.03001070978771133 0.9995495772086734 0  -0.05000449828625144 0.9987489925657699 0  -0.06997826535799688 0.9975485163025836 0  -0.08992401365612987 0.9959486290808237 0  -0.1098337570523394 0.9939499714833577 0  -0.1296995238344082 0.9915533437577263 0  -0.1495133598980262 0.9887597054957303 0  -0.1692673319315537 0.9855701752492174 0  -0.1889535305924614 0.9819860300822226 0  -0.2085640736741705 0.9780087050596407 0  -0.2280911092620295 0.9736397926726377 0  -0.2475268188771627 0.9688810422010291 0  -0.2668634206069302 0.9637343590128811 0  -0.2860931722207475 0.9582018038016156 0  -0.3052083742700173 0.9522855917609239 0  -0.3242013731709289 0.9459880916978205 0  -0.3430645642688986 0.9393118250841894 0  -0.3617903948834154 0.9322594650472058 0  -0.380371367332077 0.924833835299037 0  -0.3988000419326071 0.9170379090062476 0  -0.4170690399816465 0.9088748075993678 0  -0.4351710467091335 0.9003477995230939 0  -0.4530988142070799 0.8914602989276292 0  -0.4708451643315824 0.8822158643016829 0  -0.4884029915768945 0.8726181970476778 0  -0.5057652659204197 0.8626711399997378 0  -0.5229250356374801 0.8523786758850437 0  -0.5398754300847342 0.8417449257291804 0  -0.5566096624511303 0.8307741472061098 0  -0.5731210324752971 0.8194707329334279 0  -0.589402929128276 0.8078392087135957 0  -0.6054488332605281 0.7958842317218411 0  -0.6212523202121542 0.7836105886414597 0  -0.6368070623852793 0.7710231937472639 0  -0.652106831777575 0.7581270869379444 0  -0.6671455024759069 0.7449274317181304 0  -0.6819170531091018 0.7314295131309636 0  -0.6964155692588616 0.7176387356420052 0  -0.7106352458278521 0.7035606209753273 0  -0.7245703893640187 0.6892008059026588 0  -0.7382154203402043 0.6745650399864608 0  -0.751564875388149 0.6596591832778469 0  -0.7646134094859813 0.6444892039702628 0  -0.7773557980983258 0.6290611760098654 0  -0.7897869392681683 0.6133812766635599 0  -0.8019018556596398 0.59745578404567 0  -0.8136956965509062 0.5812910746042258 0  -0.8251637397763595 0.5648936205678839 0  -0.836301393617339 0.5482699873544935 0  -0.8471041986406197 0.5314268309423542 0  -0.8575678294839372 0.5143708952052097 0  -0.8676880965878292 0.497109009212054 0  -0.8774609478731045 0.4796480844928216 0  -0.8868824703632656 0.4619951122710621 0  -0.8959488917512338 0.4441571606647088 0  -0.904656581909754 0.426141371856055 0  -0.9130020543448703 0.4079549592320783 0  -0.920981967591891 0.3896052044962555 0  -0.9285931265532872 0.3710994547530226 0  -0.9358324837779861 0.3524451195660473 0  -0.9426971406815462 0.3336496679914984 0  -0.9491843487067303 0.3147206255874888 0  -0.9552915104240065 0.2956655714008993 0  -0.9610161805715396 0.2764921349327862 0  -0.9663560670342555 0.2572079930835851 0  -0.9713090317615876 0.2378208670793361 0  -0.9758730916235353 0.2183385193801658 0  -0.9800464192046954 0.198768750572253 0  -0.9838273435359444 0.1791193962445354 0  -0.987214350763483 0.159398323851397 0  -0.9902060847549714 0.1396134295625972 0  -0.9928013476425149 0.1197726351017052 0  -0.9949991003022804 0.09988388457430147 0  -0.9967984627705549 0.07995514128721509 0  -0.9981987145960756 0.05999438456007793 0  -0.9991992951284931 0.04000960653046362 0  -0.9997998037428526 0.02000880895389464 0  -1 1.224646799147353e-16 0  -0.9997998037428526 -0.0200088089538944 0  -0.9991992951284931 -0.04000960653046338 0  -0.9981987145960756 -0.05999438456007812 0  -0.9967984627705549 -0.07995514128721484 0  -0.9949991003022806 -0.09988388457430078 0  -0.9928013476425149 -0.1197726351017049 0  -0.9902060847549715 -0.1396134295625965 0  -0.9872143507634831 -0.1593983238513963 0  -0.9838273435359444 -0.1791193962445356 0  -0.9800464192046953 -0.1987687505722532 0  -0.9758730916235354 -0.2183385193801655 0  -0.9713090317615876 -0.2378208670793363 0  -0.9663560670342556 -0.2572079930835848 0  -0.9610161805715396 -0.276492134932786 0  -0.9552915104240066 -0.2956655714008991 0  -0.9491843487067305 -0.3147206255874881 0  -0.9426971406815464 -0.3336496679914978 0  -0.9358324837779862 -0.3524451195660471 0  -0.9285931265532875 -0.371099454753022 0  -0.9209819675918909 -0.3896052044962557 0  -0.9130020543448704 -0.407954959232078 0  -0.9046565819097541 -0.4261413718560548 0  -0.8959488917512338 -0.4441571606647086 0  -0.8868824703632655 -0.4619951122710623 0  -0.8774609478731046 -0.4796480844928214 0  -0.8676880965878293 -0.4971090092120538 0  -0.8575678294839373 -0.5143708952052095 0  -0.84710419864062 -0.5314268309423537 0  -0.8363013936173395 -0.5482699873544929 0  -0.8251637397763596 -0.5648936205678838 0  -0.8136956965509061 -0.5812910746042259 0  -0.8019018556596399 -0.5974557840456699 0  -0.7897869392681682 -0.61338127666356 0  -0.777355798098326 -0.6290611760098652 0  -0.7646134094859816 -0.6444892039702625 0  -0.7515648753881492 -0.6596591832778468 0  -0.7382154203402048 -0.6745650399864603 0  -0.7245703893640192 -0.6892008059026583 0  -0.7106352458278522 -0.7035606209753272 0  -0.6964155692588621 -0.7176387356420046 0  -0.6819170531091017 -0.7314295131309637 0  -0.667145502475907 -0.7449274317181303 0  -0.6521068317775756 -0.758127086937944 0  -0.6368070623852792 -0.7710231937472641 0  -0.6212523202121544 -0.7836105886414596 0  -0.6054488332605283 -0.795884231721841 0  -0.5894029291282762 -0.8078392087135956 0  -0.5731210324752977 -0.8194707329334274 0  -0.5566096624511304 -0.8307741472061095 0  -0.5398754300847344 -0.8417449257291802 0  -0.5229250356374798 -0.8523786758850437 0  -0.5057652659204195 -0.8626711399997379 0  -0.4884029915768943 -0.872618197047678 0  -0.4708451643315825 -0.8822158643016828 0  -0.4530988142070805 -0.8914602989276289 0  -0.4351710467091333 -0.900347799523094 0  -0.4170690399816467 -0.9088748075993677 0  -0.3988000419326073 -0.9170379090062475 0  -0.3803713673320777 -0.9248338352990366 0  -0.3617903948834162 -0.9322594650472055 0  -0.3430645642688988 -0.9393118250841893 0  -0.3242013731709283 -0.9459880916978207 0  -0.3052083742700169 -0.9522855917609241 0  -0.2860931722207477 -0.9582018038016155 0  -0.2668634206069305 -0.963734359012881 0  -0.2475268188771631 -0.968881042201029 0  -0.2280911092620301 -0.9736397926726376 0  -0.2085640736741706 -0.9780087050596407 0  -0.1889535305924619 -0.9819860300822225 0  -0.1692673319315544 -0.9855701752492173 0  -0.1495133598980269 -0.9887597054957302 0  -0.1296995238344092 -0.9915533437577262 0  -0.1098337570523396 -0.9939499714833577 0  -0.08992401365612945 -0.9959486290808237 0  -0.06997826535799691 -0.9975485163025836 0  -0.05000449828625168 -0.9987489925657699 0  -0.030010709787
[...]
<PointData  Scalars="Displacement"> 
<DataArray  type="Float64"  Name="Displacement"  format="ascii">0.0000000000000000e+00  0.0000000000000000e+00  0.0000000000000000e+00  0.0000000000000000e+00  0.0000000000000000e+00  0.0000000000000000e+00  0.0000000000000000e+00  0.0000000000000000e+00  0.0000000000000000e+00  0.0000000000000000e+00  0.0000000000000000e+00  0.0000000000000000e+00  0.0000000000000000e+00  0.0000000000000000e+00  0.0000000000000000e+00  0.0000000000000000e+00  0.0000000000000000e+00  0.0000000000000000e+00  0.0000000000000000e+00  0.0000000000000000e+00  0.0000000000000000e+00  0.0000000000000000e+00  0.0000000000000000e+00  0.0000000000000000e+00  0.0000000000000000e+00  0.0000000000000000e+00  0.0000000000000000e+00  0.0000000000000000e+00  0.0000000000000000e+00  0.0000000000000000e+00  0.0000000000000000e+00  0.0000000000000000e+00  0.0000000000000000e+00  0.0000000000000000e+00  0.0000000000000000e+00  0.0000000000000000e+00  0.0000000000000000e+00  0.0000000000000000e+00  0.0000000000000000e+00  0.0000000000000000e+00  0.0000000000000000e+00  0.0000000000000000e+00  0.0000000000000000e+00  0.0000000000000000e+00  0.0000000000000000e+00  0.0000000000000000e+00  0.0000000000000000e+00  0.0000000000000000e+00  0.0000000000000000e+00  0.0000000000000000e+00  0.0000000000000000e+00  0.0000000000000000e+00  0.0000000000000000e+00  0.0000000000000000e+00  0.0000000000000000e+00  0.0000000000000000e+00  0.0000000000000000e+00  0.0000000000000000e+00  0.0000000000000000e+00  0.0000000000000000e+00  0.0000000000000000e+00  0.0000000000000000e+00  0.0000000000000000e+00  0.0000000000000000e+00  0.0000000000000000e+00  0.0000000000000000e+00  0.0000000000000000e+00  0.0000000000000000e+00  0.0000000000000000e+00  0.0000000000000000e+00  0.0000000000000000e+00  0.0000000000000000e+00  0.0000000000000000e+00  0.0000000000000000e+00  0.0000000000000000e+00  0.0000000000000000e+00  0.0000000000000000e+00  0.0000000000000000e+00  0.0000000000000000e+00  0.0000000000000000e+00  0.0000000000000000e+00  0.0000000000000000e+00  0.0000000000000000e+00  0.0000000000000000e+00  0.0000000000000000e+00  0.0000000000000000e+00  0.0000000000000000e+00  0.0000000000000000e+00  0.0000000000000000e+00  0.0000000000000000e+00  0.0000000000000000e+00  0.0000000000000000e+00  0.0000000000000000e+00  0.0000000000000000e+00  0.0000000000000000e+00  0.0000000000000000e+00  0.0000000000000000e+00  0.0000000000000000e+00  0.0000000000000000e+00  0.0000000000000000e+00  0.0000000000000000e+00  0.0000000000000000e+00  0.0000000000000000e+00  0.0000000000000000e+00  0.0000000000000000e+00  0.0000000000000000e+00  0.0000000000000000e+00  0.0000000000000000e+00  0.0000000000000000e+00  0.0000000000000000e+00  0.0000000000000000e+00  0.0000000000000000e+00  0.0000000000000000e+00  0.0000000000000000e+00  0.0000000000000000e+00  0.0000000000000000e+00  0.0000000000000000e+00  0.0000000000000000e+00  0.0000000000000000e+00  0.0000000000000000e+00  0.0000000000000000e+00  0.0000000000000000e+00  0.0000000000000000e+00  0.0000000000000000e+00  0.0000000000000000e+00  0.0000000000000000e+00  0.0000000000000000e+00  0.0000000000000000e+00  0.0000000000000000e+00  0.0000000000000000e+00  0.0000000000000000e+00  0.0000000000000000e+00  0.0000000000000000e+00  0.0000000000000000e+00  0.0000000000000000e+00  0.0000000000000000e+00  0.0000000000000000e+00  0.0000000000000000e+00  0.0000000000000000e+00  0.0000000000000000e+00  0.0000000000000000e+00  0.0000000000000000e+00  0.0000000000000000e+00  0.0000000000000000e+00  0.0000000000000000e+00  0.0000000000000000e+00  0.0000000000000000e+00  0.0000000000000000e+00  0.0000000000000000e+00  0.0000000000000000e+00  0.0000000000000000e+00  0.0000000000000000e+00  0.0000000000000000e+00  0.0000000000000000e+00  0.0000000000000000e+00  0.0000000000000000e+00  0.0000000000000000e+00  0.0000000000000000e+00  0.0000000000000000e+00  0.0000000000000000e+00  0.0000000000000000e+00  0.0000000000000000e+00  0.0000000000000000e+00  0.0000000000000000e+00  0.0000000000000000e+00  0.0000000000000000e+00  0.0000000000000000e+00  0.0000000000000000e+00  0.0000000000000000e+00  0.0000000000000000e+00  0.0000000000000000e+00  0.0000000000000000e+00  0.0000000000000000e+00  0.0000000000000000e+00  0.0000000000000000e+00  0.0000000000000000e+00  0.0000000000000000e+00  0.0000000000000000e+00  0.0000000000000000e+00  0.0000000000000000e+00  0.0000000000000000e+00  0.0000000000000000e+00  0.0000000000000000e+00  0.0000000000000000e+00  0.0000000000000000e+00  0.0000000000000000e+00  0.0000000000000000e+00  0.0000000000000000e+00  0.0000000000000000e+00  0.0000000000000000e+00  0.0000000000000000e+00  0.0000000000000000e+00  0.0000000000000000e+00  0.0000000000000000e+00  0.0000000000000000e+00  0.0000000000000000e+00  0.0000000000000000e+00  0.0000000000000000e+00  0.0000000000000000e+00  0.0000000000000000e+00  0.0000000000000000e+00  0.0000000000000000e+00  0.0000000000000000e+00  0.0000000000000000e+00  0.0000000000000000e+00  0.0000000000000000e+00  0.0000000000000000e+00  0.0000000000000000e+00  0.0000000000000000e+00  0.0000000000000000e+00  0.0000000000000000e+00  0.0000000000000000e+00  0.0000000000000000e+00  0.0000000000000000e+00  0.0000000000000000e+00  0.0000000000000000e+00  0.0000000000000000e+00  0.0000000000000000e+00  0.0000000000000000e+00  0.0000000000000000e+00  0.0000000000000000e+00  0.0000000000000000e+00  0.0000000000000000e+00  0.0000000000000000e+00  0.0000000000000000e+00  0.0000000000000000e+00  0.0000000000000000e+00  0.0000000000000000e+00  0.0000000000000000e+00  0.0000000000000000e+00  0.0000000000000000e+00  0.0000000000000000e+00  0.0000000000000000e+00  0.0000000000000000e+00  0.0000000000000000e+00  0.0000000000000000e+00  0.0000000000000000e+00  0.0000000000000000e+00  0.0000000000000000e+00  0.0000000000000000e+00  0.0000000000000000e+00  0.0000000000000000e+00  0.0000000000000000e+00  0.0000000000000000e+00  0.0000000000000000e+00  0.0000000000000000e+00  0.0000000000000000e+00  0.0000000000000000e+00  0.0000000000000000e+00  0.0000000000000000e+00  0.0000000000000000e+00  0.0000000000000000e+00  0.0000000000000000e+00  0.0000000000000000e+00  0.0000000000000000e+00  0.0000000000000000e+00  0.0000000000000000e+00  0.0000000000000000e+00  0.0000000000000000e+00  0.0000000000000000e+00  0.0000000000000000e+00  0.0000000000000000e+00  0.0000000000000000e+00  0.0000000000000000e+00  0.0000000000000000e+00  0.0000000000000000e+00  0.0000000000000000e+00  0.0000000000000000e+00  0.0000000000000000e+00  0.0000000000000000e+00  0.0000000000000000e+00  0.0000000000000000e+00  0.0000000000000000e+00  0.0000000000000000e+00  0.0000000000000000e+00  0.0000000000000000e+00  0.0000000000000000e+00  0.0000000000000000e+00  0.0000000000000000e+00  0.0000000000000000e+00  0.0000000000000000e+00  0.0000000000000000e+00  0.0000000000000000e+00  0.0000000000000000e+00  0.0000000000000000e+00  0.0000000000000000e+00  0.0000000000000000e+00  0.0000000000000000e+00  0.0000000000000000e+00  0.0000000000000000e+00  0.0000000000000000e+00  0.0000000000000000e+00  0.0000000000000000e+00  0.0000000000000000e+00  0.0000000000000000e+00  0.0000000000000000e+00  0.0000000000000000e+00  0.0000000000000000e+00  0.0000000000000000e+00  0.0000000000000000e+00  0.0000000000000000e+00  0.0000000000000000e+00  0.0000000000000000e+00  0.0000000000000000e+00  0.0000000000000000e+00  0.0000000000000000e+00  0.0000000000000000e+00  0.0000000000000000e+00  0.0000000000000000e+00  0.0000000000000000e+00  0.0000000000000000e+00  0.0000000000000000e+00  0.0000000000000000e+00  0.0000000000000000e+00  2.4600603877290042e+215  -2.4688675975805070e+212  1.2582396425012683e+212  1.0494423678096930e+216  -1.0098364244054034e+211  2.1735325224324200e+215  -7.4798308081704010e+210  -4.1926069178527659e+208  1.6287470383534199e+210  8.4132022945287478e+207  4.1174397958010174e+209  -3.3202988576951320e+217  1.2421154339989316e+211  7.8389401348795376e+206  1.7448088301466294e+214  5.0475755231880806e+216  1.7944671474564237e+208  -4.7636422716396977e+208  2.0062558831828443e+206  -2.2135975756898593e+209  -9.6996697354200904e+204  2.5179174675730414e+206  4.8151497929361654e+205  1.5556757754898130e+214  7.3706363810907480e+217  -1.7213414431180594e+214  1.0053713136984778e+208  1.3647403925945321e+207  -4.5754353982510841e+208  -7.7577328329389023e+213  3.3087834959812977e+204  -5.0504939881544165e+217  1.5486019659397124e+218  2.5197564342237699e+218  5.2377600477126445e+205  -5.9594491022251315e+204  -1.5576068818768417e+204  -1.5592811809632462e+205  1.2181091343589574e+206  -7.8303888662657261e+212  8.2947396445054856e+213  -1.0720841469597776e+209  1.0503403887024959e+212  8.9283630925956880e+217  1.1638789059342211e+204  -8.6835820784000667e+203  3.9747697494047410e+204  8.9904864374914066e+203  -1.2219951679755615e+211  2.6715345065662272e+210  -8.0357661110157525e+211  -1.0796211750429567e+209  -2.5195834240370889e+212  1.1592712924040938e+215  1.1018547148159779e+209  4.6336088436457464e+214  8.5774212796441291e+204  2.8589282320704132e+206  -6.8528201326715304e+215  4.8550323069388045e+207  1.7601286738064675e+206  -5.6704696800436191e+206  5.7167340153285883e+202  7.8350421112474851e+202  5.9497185731827651e+214  -5.3294500493605982e+214  -5.5737906768182954e+217  -5.9566824574935916e+212  -2.5579536655392214e+217  6.8671440419603804e+213  -8.7956045794269146e+216  1.2619490041460687e+210  2.3692556207756876e+213  -6.7027168321589795e+209  -7.3547422776641940e+211  -2.6646538516928126e+212  1.6672580033121747e+205  3.7321330291423274e+215  9.7223628828491148e+215  7.3364860734076520e+206  -4.5568902891268577e+205  2.6569606943607772e+212  -6.9832808143967194e+205  4.4105617706992438e+201  -3.1449033289633227e+202  3.3138619548178098e+217  1.0189134115490159e+205  2.1736551842776274e+204  -7.8278903837395748e+201  2.0934076939763844e+213  -1.4536129422554355e+208  -6.3207223341407111e+203  1.0443787626540080e+211  -1.9369595626953064e+202  -1.1012750307116853e+209  -2.1921262869116074e+219  -2.0992275780941709e+204  1.1202276647267889e+203  7.6450950061271800e+207  1.0339834362445022e+206  -4.4537023000874377e+208  -1.7927864672790702e+209  -5.3762356927154186e+203  -1.7201327977385762e+214  7.4326326461144086e+211  1.8140161528408333e+211  -6.7955599544898642e+214  -5.2304845667124655e+208  8.7346890880551464e+208  -2.2194518045433257e+204  -2.3942555873214900e+214  1.3541438748065175e+209  4.3647550875182761e+202  -5.2623251923783435e+211  -1.6300601889507952e+213  3.0706822903905035e+205  -1.7590631798047932e+204  -4.8292821026186594e+202  8.4053667541293066e+201  -7.3055380180317099e+214  -2.0153656176596928e+213  -8.3459937915476671e+206  -6.0222361533981089e+218  3.1278088853991030e+205  -1.3519277446301070e+210  -5.9583934083727543e+209  -1.0198180243398499e+203  3.5634087769453289e+203  -1.3887083747522201e+208  1.7718618979894624e+210  -1.2757373703433915e+208  -2.9168804275518739e+207  1.6507309264825947e+211  4.9058594416408546e+213  3.8818076087885706e+207  5.3475935032651645e+205  -6.2826364364784309e+203  -3.6002232647333368e+221  -1.2429894858189118e+215  -1.3558404809619475e+214  -1.0788124079194191e+216  6.0409961083569384e+220  1.0561436919941784e+206  4.6528036949594838e+218  2.7742719180981123e+210  1.9662466870906856e+206  5.1427996175535190e+205  -2.1259065013581724e+213  -2.3484684124261705e+216  4.4171104892046517e+207  -7.3052894788733418e+201  8.1967283687467478e+213  -8.7771831242885014e+218  3.7912101074837311e+203  4.1439254745664599e+206  3.8754920741166677e+202  1.3336400499246332e+201  -6.9506639863253323e+206  2.0958237473183462e+203  -2.1921467284399181e+201  8.1581879956231454e+200  -2.6831715497623294e+206  3.7284859799878913e+211  -1.7411101609143236e+204  -4.6010113244079835e+207  -7.7148055952540274e+213  -2.1636588829663540e+209  6.0327455537903948e+200  -3.2035964356264466e+201  -1.2738143270918384e+205  2.2863195350483791e+211  6.9938273248018621e+214  -1.4673368167825713e+205  -2.2105948166800526e+216  -1.2208812092570289e+202  2.1032212842686951e+210  -3.6496290029609574e+202  -6.2026788822866431e+206  5.2514883354538428e+200  2.2649889109117447e+211  1.1166828983579787e+206  7.1700793378468503e+213  -1.6109209382453442e+209  -1.0369924107478248e+217  1.0863034705325672e+202  -1.6134508599801779e+211  7.0645047134151805e+209  6.2233351397248075e+213  -2.5583772240163799e+202  4.9220529686290053e+204  2.8782085652334883e+204  -1.6905145656141898e+218  4.7938690503456749e+201  -8.1928886222525648e+205  2.2759291149915208e+216  3.3351510855904713e+217  -8.7065084299277774e+206  -1.5010730009994332e+207  -1.6054390187562080e+214  -1.8078127378981903e+210  -2.4671529410338484e+211  -7.5982699048598790e+209  4.8374983073657978e+212  1.5425745888751876e+208  -3.9071599761361996e+209  -5.2661239315031504e+205  1.3485455796445242e+205  -2.7042665622336442e+215  3.1213915669344616e+205  5.4517252795318345e+205  9.4918639435692841e+205  1.2404817966696820e+214  -4.8665218308989080e+213  -1.5407137605779497e+207  3.2859539984229687e+200  -8.7730111966130846e+208  7.8830427952978648e+215  -3.2853620295737981e+205  -5.6215429793990782e+208  -5.2298082865001041e+207  1.6942845749446392e+204  -1.0720234559590936e+211  -7.1960347072796878e+214  -3.0007956400365361e+209  1.0158254354202499e+210  2.6175359538958239e+203  -2.4455671143986419e+206  -1.8133692941718276e+202  6.9793546919183063e+206  -1.0521633508479126e+201  1.1985957667847095e+203  -1.8294865528696884e+203  -4.9723509299383999e+203  -1.6691810219082204e+206  3.5761668315918757e+204  -1.5950454545199783e+212  -2.4210528043805196e+209  -1.4422141485586220e+208  -8.8359523928945752e+205  5.8907017668666395e+215  -3.1432163564588984e+214  1.3344994658447598e+210  1.0307953281008483e+211  1.1200873868582350e+203  1.2327309316221955e+214  -1.2939725898222020e+209  -2.5493379620131732e+203  -7.6153678027985983e+200  2.6823457326448867e+215  -2.7928839369922475e+212  -6.5275420535052928e+211  6.7887625168166487e+210  2.3488063110939204e+218  1.1144519707341420e+216  6.6899452634156705e+204  -7.4226299908537592e+215  3.1671319717688961e+209  -1.2620597358126755e+211  1.2191214420312626e+203  1.9080876154315994e+203  4.2873917408023445e+201  -4.3446845004337626e+208  -6.2650788458763263e+206  2.7188592893722086e+214  -5.7731641687876772e+214  7.4947042771347212e+216  -3.6445500235995722e+204  2.2091771577793525e+203  1.7621454383821167e+201  -2.8516729982285160e+210  -4.2871535962495789e+201  -5.5859752812040370e+216  4.9315486453778436e+214  -1.2049070926945073e+207  5.0495561829353426e+203  6.1183941351743195e+206  3.8460473792477645e+219  1.0545474088054865e+215  7.9990567612456618e+213  -1.6364203169794411e+213  -1.7783132513381382e+213  -8.5276867491314930e+215  -3.9137794373629690e+215  5.0391699096344095e+212  -1.2387513485752641e+210  1.3709022405371129e+206  2.0565332506073813e+219  -1.1493628533106600e+203  2.7740640330586974e+206  4.6121767976826666e+215  -1.3482977213114418e+216  -1.6846359885382011e+215  5.1661502442835974e+208  -1.6980577484008613e+209  6.6163650277550160e+219  8.7901128036625044e+199  3.0765621444266145e+216  -1.3733061808243016e+203  -6.5703182283677089e+200  8.2900961435329728e+201  8.7893408121370425e+213  1.3219307896447356e+213  9.3917214322214195e+217  2.3092256063352088e+218  8.0567797667063274e+211  1.6885741327754673e+207  1.5843503993742211e+208  -2.0098196582251812e+212  -7.3838029978507080e+212  1.6822745458165341e+208  4.2412198899001265e+212  -3.8778179502232282e+209  -1.0269670789163509e+214  6.7796467504587328e+204  3.0258160319883729e+214  -2.3498079388954108e+214  -1.4167823323247293e+213  4.6251705063409758e+205  -2.8796394704626632e+203  -7.9904908126544027e+203  -7.1221196620736268e+204  -5.7078547980494083e+203  -3.5861723946102269e+203  -8.1095574052398849e+216  -1.9460902676605824e+202  2.0515445631972335e+202  3.2381182587939360e+203  -2.2817835397522131e+213  4.6684436733812428e+211  -2.8883693775731860e+214  7.3182861926324302e+202  6.8674881068376535e+206  -2.8399242417305824e+209  -5.7154867546724903e+213  2.9202731161286223e+214  5.4029109076484755e+207  5.9989692269268966e+213  -5.8256513609939667e+213  1.7369790894572382e+220  -2.8375768778030541e+207  4.9337206323827539e+206  -1.2922859110454419e+213  -1.1161450901924961e+205  -2.5722338907299129e+203  7.1678855106544718e+210  -9.1670156459088022e+201  -1.7180760522532103e+206  -8.0204710753715412e+208  2.8029735258706307e+200  -3.0438729975747190e+207  4.4354077025568446e+208  1.3600832423071619e+202  1.5540073867046534e+205  -1.6936102867541144e+202  -1.8297402762405434e+203  6.0530126216297275e+206  3.4198997349596518e+210  3.8226303328816168e+216  -7.4395938802196645e+203  -5.4753773547560449e+214  6.0594811425550785e+217  7.5425637988432097e+205  -4.0118076126135479e+201  6.7936479903404860e+210  1.0858292264945406e+205  1.0685087054054819e+219  -1.0659543059375961e+205  -2.3021628773978326e+206  -7.0833814631901726e+214  -4.1357206233920433e+202  -2.9215750098027760e+199  3.4831437688879713e+202  1.8821503950339044e+207  -3.6953618736962317e+213  -4.7767770461609065e+210  2.1529861767683378e+208  1.0954993411455820e+207  -6.9256628512408141e+217  2.4910044185613120e+209  -5.0895198558862660e+201  -1.8427562312627965e+211  1.1344681583499736e+202  2.6468724388880084e+204  -2.8298949331207742e+212  5.0791927135784749e+202  1.7014053786497311e+220  1.0196408376984352e+201  8.4748216379599028e+203  5.9987836509476033e+200  1.6367037420772306e+213  -8.9767529500920153e+209  -9.7146424311817083e+207  -4.6258097511719871e+210  6.3956817894141903e+200  5.0973129463823183e+204  2.2154674088626119e+214  -1.1918012142282831e+207  -1.4950018278331913e+212  -6.0740089768704421e+207  -1.0990101893324909e+201  5.9874188800547614e+200  2.7712441723834500e+213  -2.2665452497052591e+201  -9.9385336389060383e+213  5.6742208171351885e+206  1.8017581999549110e+216  -8.8852788490745342e+207  -5.2630559709657274e+202  6.1082405041448394e+204  6.0463878530433384e+204  3.1778797311162936e+204  -1.4476612478615961e+204  4.9335065819216438e+215  -2.2355825528025439e+217  1.0559114997167820e+220  4.5659775610301048e+215  -5.9437598155765038e+204  2.0092307128448422e+218  -2.1121469059728319e+215  -5.6793396454820999e+204  -1.4876108248404450e+201  5.2028901083325942e+200  -2.5297208571386512e+209  2.9240947097808404e+208  -9.4609565918563073e+207  -5.7262062516170970e+215  -2.4017741481072445e+207  2.4946602190729217e+201  5.8543579121791365e+200  -6.4890938562761209e+200  1.0567820782091475e+210  -4.5079298607442285e+204  1.0974106684673757e+209  2.9047869091778567e+203  4.1266519282192250e+203  -4.4914630456964487e+204  2.2417480925499612e+210  8.2971948753445874e+204  -5.8074319113977226e+211  -1.3840468105770135e+212  5.5181040734632808e+212  -8.7518339299026675e+209  -3.8815138373476848e+211  1.6222162627712903e+213  2.3945852433916203e+203  1.5848133530392179e+217  2.3140873050400084e+205  -2.0920817993120555e+218  1.0405800280603364e+209  3.0648236032294048e+214  1.3353140368640831e+213  7.7022945764470466e+220  1.3031184077624626e+205  2.1042035403903628e+202  -2.9637727837584411e+207  -2.8492554885498252e+215  2.7304197999094628e+207  -4.0966341762273046e+212  -1.5398772963967599e+213  4.0611203625407391e+203  -2.2428872473484777e+208  -2.7250570821290998e+202  -2.6583413307451919e+219  -2.9421395217356856e+219  5.6127061183459714e+217  1.4228554381293766e+207  4.4031601126353948e+204  8.1438310667731101e+204  1.2287755655977864e+207  7.3300485888786758e+210  -6.2815872122782958e+212  7.5263456939840615e+204  -1.2171343930806392e+213  -3.0837925306521456e+208  3.9169723408471258e+206  -6.0889609026250199e+218  -2.1465709994237666e+208  -3.7839746525839285e+212  -7.8426351911085776e+208  -7.6561996507918841e+210  -1.2304187217733242e+208  1.5039686935182684e+207  1.9414471032224715e+201  6.4615395304916041e+207  1.0707993241427402e+202  1.