<?xml version="1.0"?>
<VTKFile type="UnstructuredGrid"  version="0.1"  >
<UnstructuredGrid>
<Piece  NumberOfPoints="20054" NumberOfCells="39478">
<Points>
<DataArray  type="Float64"  NumberOfComponents="3"  format="ascii">1 0 0  0.9997998037428526 0.02000880895389431 0  0.9991992951284931 0.04000960653046352 0  0.9981987145960756 0.05999438456007805 0  0.9967984627705549 0.07995514128721501 0  0.9949991003022806 0.09988388457430118 0  0.9928013476425149 0.1197726351017051 0  0.9902060847549715 0.139613429562597 0  0.987214350763483 0.1593983238513969 0  0.9838273435359444 0.1791193962445356 0  0.9800464192046954 0.198768750572253 0  0.9758730916235354 0.2183385193801655 0  0.9713090317615876 0.237820867079336 0  0.9663560670342555 0.2572079930835849 0  0.9610161805715396 0.2764921349327862 0  0.9552915104240066 0.2956655714008991 0  0.9491843487067304 0.3147206255874884 0  0.9426971406815462 0.3336496679914983 0  0.9358324837779861 0.3524451195660473 0  0.9285931265532873 0.3710994547530225 0  0.9209819675918909 0.3896052044962556 0  0.9130020543448703 0.4079549592320781 0  0.9046565819097542 0.4261413718560547 0  0.8959488917512338 0.4441571606647087 0  0.8868824703632656 0.4619951122710622 0  0.8774609478731046 0.4796480844928215 0  0.8676880965878291 0.4971090092120542 0  0.8575678294839372 0.5143708952052096 0  0.8471041986406199 0.5314268309423539 0  0.8363013936173391 0.5482699873544935 0  0.8251637397763597 0.5648936205678837 0  0.8136956965509062 0.5812910746042258 0  0.8019018556596399 0.5974557840456699 0  0.7897869392681683 0.6133812766635599 0  0.777355798098326 0.6290611760098652 0  0.7646134094859813 0.6444892039702628 0  0.7515648753881492 0.6596591832778468 0  0.7382154203402046 0.6745650399864606 0  0.7245703893640189 0.6892008059026586 0  0.7106352458278521 0.7035606209753273 0  0.6964155692588616 0.7176387356420051 0  0.6819170531091018 0.7314295131309636 0  0.6671455024759069 0.7449274317181303 0  0.6521068317775753 0.7581270869379442 0  0.6368070623852795 0.7710231937472638 0  0.6212523202121545 0.7836105886414595 0  0.6054488332605282 0.795884231721841 0  0.5894029291282759 0.8078392087135958 0  0.5731210324752972 0.8194707329334278 0  0.5566096624511305 0.8307741472061095 0  0.5398754300847343 0.8417449257291802 0  0.5229250356374803 0.8523786758850435 0  0.5057652659204196 0.8626711399997378 0  0.4884029915768944 0.8726181970476778 0  0.4708451643315825 0.8822158643016828 0  0.45309881420708 0.8914602989276292 0  0.4351710467091336 0.9003477995230937 0  0.4170690399816468 0.9088748075993677 0  0.398800041932607 0.9170379090062476 0  0.3803713673320772 0.9248338352990368 0  0.3617903948834157 0.9322594650472057 0  0.3430645642688987 0.9393118250841893 0  0.3242013731709288 0.9459880916978206 0  0.3052083742700172 0.952285591760924 0  0.2860931722207478 0.9582018038016155 0  0.2668634206069304 0.963734359012881 0  0.2475268188771628 0.9688810422010291 0  0.2280911092620296 0.9736397926726377 0  0.2085640736741707 0.9780087050596407 0  0.1889535305924618 0.9819860300822225 0  0.1692673319315541 0.9855701752492174 0  0.1495133598980264 0.9887597054957302 0  0.1296995238344084 0.9915533437577263 0  0.1098337570523395 0.9939499714833577 0  0.08992401365612977 0.9959486290808237 0  0.06997826535799723 0.9975485163025836 0  0.05000449828625179 0.9987489925657699 0  0.03001070978771124 0.9995495772086734 0  0.01000490522562346 0.9999499496831961 0  -0.01000490522562333 0.9999499496831961 0  -0.03001070978771133 0.9995495772086734 0  -0.05000449828625144 0.9987489925657699 0  -0.06997826535799688 0.9975485163025836 0  -0.08992401365612987 0.9959486290808237 0  -0.1098337570523394 0.9939499714833577 0  -0.1296995238344082 0.9915533437577263 0  -0.1495133598980262 0.9887597054957303 0  -0.1692673319315537 0.9855701752492174 0  -0.1889535305924614 0.9819860300822226 0  -0.2085640736741705 0.9780087050596407 0  -0.2280911092620295 0.9736397926726377 0  -0.2475268188771627 0.9688810422010291 0  -0.2668634206069302 0.9637343590128811 0  -0.2860931722207475 0.9582018038016156 0  -0.3052083742700173 0.9522855917609239 0  -0.3242013731709289 0.9459880916978205 0  -0.3430645642688986 0.9393118250841894 0  -0.3617903948834154 0.9322594650472058 0  -0.380371367332077 0.924833835299037 0  -0.3988000419326071 0.9170379090062476 0  -0.4170690399816465 0.9088748075993678 0  -0.4351710467091335 0.9003477995230939 0  -0.4530988142070799 0.8914602989276292 0  -0.4708451643315824 0.8822158643016829 0  -0.4884029915768945 0.8726181970476778 0  -0.5057652659204197 0.8626711399997378 0  -0.5229250356374801 0.8523786758850437 0  -0.5398754300847342 0.8417449257291804 0  -0.5566096624511303 0.8307741472061098 0  -0.5731210324752971 0.8194707329334279 0  -0.589402929128276 0.8078392087135957 0  -0.6054488332605281 0.7958842317218411 0  -0.6212523202121542 0.7836105886414597 0  -0.6368070623852793 0.7710231937472639 0  -0.652106831777575 0.7581270869379444 0  -0.6671455024759069 0.7449274317181304 0  -0.6819170531091018 0.7314295131309636 0  -0.6964155692588616 0.7176387356420052 0  -0.7106352458278521 0.7035606209753273 0  -0.7245703893640187 0.6892008059026588 0  -0.7382154203402043 0.6745650399864608 0  -0.751564875388149 0.6596591832778469 0  -0.7646134094859813 0.6444892039702628 0  -0.7773557980983258 0.6290611760098654 0  -0.7897869392681683 0.6133812766635599 0  -0.8019018556596398 0.59745578404567 0  -0.8136956965509062 0.5812910746042258 0  -0.8251637397763595 0.5648936205678839 0  -0.836301393617339 0.5482699873544935 0  -0.8471041986406197 0.5314268309423542 0  -0.8575678294839372 0.5143708952052097 0  -0.8676880965878292 0.497109009212054 0  -0.8774609478731045 0.4796480844928216 0  -0.8868824703632656 0.4619951122710621 0  -0.8959488917512338 0.4441571606647088 0  -0.904656581909754 0.426141371856055 0  -0.9130020543448703 0.4079549592320783 0  -0.920981967591891 0.3896052044962555 0  -0.9285931265532872 0.3710994547530226 0  -0.9358324837779861 0.3524451195660473 0  -0.9426971406815462 0.3336496679914984 0  -0.9491843487067303 0.3147206255874888 0  -0.9552915104240065 0.2956655714008993 0  -0.9610161805715396 0.2764921349327862 0  -0.9663560670342555 0.2572079930835851 0  -0.9713090317615876 0.2378208670793361 0  -0.9758730916235353 0.2183385193801658 0  -0.9800464192046954 0.198768750572253 0  -0.9838273435359444 0.1791193962445354 0  -0.987214350763483 0.159398323851397 0  -0.9902060847549714 0.1396134295625972 0  -0.9928013476425149 0.1197726351017052 0  -0.9949991003022804 0.09988388457430147 0  -0.9967984627705549 0.07995514128721509 0  -0.9981987145960756 0.05999438456007793 0  -0.9991992951284931 0.04000960653046362 0  -0.9997998037428526 0.02000880895389464 0  -1 1.224646799147353e-16 0  -0.9997998037428526 -0.0200088089538944 0  -0.9991992951284931 -0.04000960653046338 0  -0.9981987145960756 -0.05999438456007812 0  -0.9967984627705549 -0.07995514128721484 0  -0.9949991003022806 -0.09988388457430078 0  -0.9928013476425149 -0.1197726351017049 0  -0.9902060847549715 -0.1396134295625965 0  -0.9872143507634831 -0.1593983238513963 0  -0.9838273435359444 -0.1791193962445356 0  -0.9800464192046953 -0.1987687505722532 0  -0.9758730916235354 -0.2183385193801655 0  -0.9713090317615876 -0.2378208670793363 0  -0.9663560670342556 -0.2572079930835848 0  -0.9610161805715396 -0.276492134932786 0  -0.9552915104240066 -0.2956655714008991 0  -0.9491843487067305 -0.3147206255874881 0  -0.9426971406815464 -0.3336496679914978 0  -0.9358324837779862 -0.3524451195660471 0  -0.9285931265532875 -0.371099454753022 0  -0.9209819675918909 -0.3896052044962557 0  -0.9130020543448704 -0.407954959232078 0  -0.9046565819097541 -0.4261413718560548 0  -0.8959488917512338 -0.4441571606647086 0  -0.8868824703632655 -0.4619951122710623 0  -0.8774609478731046 -0.4796480844928214 0  -0.8676880965878293 -0.4971090092120538 0  -0.8575678294839373 -0.5143708952052095 0  -0.84710419864062 -0.5314268309423537 0  -0.8363013936173395 -0.5482699873544929 0  -0.8251637397763596 -0.5648936205678838 0  -0.8136956965509061 -0.5812910746042259 0  -0.8019018556596399 -0.5974557840456699 0  -0.7897869392681682 -0.61338127666356 0  -0.777355798098326 -0.6290611760098652 0  -0.7646134094859816 -0.6444892039702625 0  -0.7515648753881492 -0.6596591832778468 0  -0.7382154203402048 -0.6745650399864603 0  -0.7245703893640192 -0.6892008059026583 0  -0.7106352458278522 -0.7035606209753272 0  -0.6964155692588621 -0.7176387356420046 0  -0.6819170531091017 -0.7314295131309637 0  -0.667145502475907 -0.7449274317181303 0  -0.6521068317775756 -0.758127086937944 0  -0.6368070623852792 -0.7710231937472641 0  -0.6212523202121544 -0.7836105886414596 0  -0.6054488332605283 -0.795884231721841 0  -0.5894029291282762 -0.8078392087135956 0  -0.5731210324752977 -0.8194707329334274 0  -0.5566096624511304 -0.8307741472061095 0  -0.5398754300847344 -0.8417449257291802 0  -0.5229250356374798 -0.8523786758850437 0  -0.5057652659204195 -0.8626711399997379 0  -0.4884029915768943 -0.872618197047678 0  -0.4708451643315825 -0.8822158643016828 0  -0.4530988142070805 -0.8914602989276289 0  -0.4351710467091333 -0.900347799523094 0  -0.4170690399816467 -0.9088748075993677 0  -0.3988000419326073 -0.9170379090062475 0  -0.3803713673320777 -0.9248338352990366 0  -0.3617903948834162 -0.9322594650472055 0  -0.3430645642688988 -0.9393118250841893 0  -0.3242013731709283 -0.9459880916978207 0  -0.3052083742700169 -0.9522855917609241 0  -0.2860931722207477 -0.9582018038016155 0  -0.2668634206069305 -0.963734359012881 0  -0.2475268188771631 -0.968881042201029 0  -0.2280911092620301 -0.9736397926726376 0  -0.2085640736741706 -0.9780087050596407 0  -0.1889535305924619 -0.9819860300822225 0  -0.1692673319315544 -0.9855701752492173 0  -0.1495133598980269 -0.9887597054957302 0  -0.1296995238344092 -0.9915533437577262 0  -0.1098337570523396 -0.9939499714833577 0  -0.08992401365612945 -0.9959486290808237 0  -0.06997826535799691 -0.9975485163025836 0  -0.05000449828625168 -0.9987489925657699 0  -0.030010709787
[...]
<PointData  Scalars="Displacement"> 
<DataArray  type="Float64"  Name="Displacement"  format="ascii">0.0000000000000000e+00  0.0000000000000000e+00  0.0000000000000000e+00  0.0000000000000000e+00  0.0000000000000000e+00  0.0000000000000000e+00  0.0000000000000000e+00  0.0000000000000000e+00  0.0000000000000000e+00  0.0000000000000000e+00  0.0000000000000000e+00  0.0000000000000000e+00  0.0000000000000000e+00  0.0000000000000000e+00  0.0000000000000000e+00  0.0000000000000000e+00  0.0000000000000000e+00  0.0000000000000000e+00  0.0000000000000000e+00  0.0000000000000000e+00  0.0000000000000000e+00  0.0000000000000000e+00  0.0000000000000000e+00  0.0000000000000000e+00  0.0000000000000000e+00  0.0000000000000000e+00  0.0000000000000000e+00  0.0000000000000000e+00  0.0000000000000000e+00  0.0000000000000000e+00  0.0000000000000000e+00  0.0000000000000000e+00  0.0000000000000000e+00  0.0000000000000000e+00  0.0000000000000000e+00  0.0000000000000000e+00  0.0000000000000000e+00  0.0000000000000000e+00  0.0000000000000000e+00  0.0000000000000000e+00  0.0000000000000000e+00  0.0000000000000000e+00  0.0000000000000000e+00  0.0000000000000000e+00  0.0000000000000000e+00  0.0000000000000000e+00  0.0000000000000000e+00  0.0000000000000000e+00  0.0000000000000000e+00  0.0000000000000000e+00  0.0000000000000000e+00  0.0000000000000000e+00  0.0000000000000000e+00  0.0000000000000000e+00  0.0000000000000000e+00  0.0000000000000000e+00  0.0000000000000000e+00  0.0000000000000000e+00  0.0000000000000000e+00  0.0000000000000000e+00  0.0000000000000000e+00  0.0000000000000000e+00  0.0000000000000000e+00  0.0000000000000000e+00  0.0000000000000000e+00  0.0000000000000000e+00  0.0000000000000000e+00  0.0000000000000000e+00  0.0000000000000000e+00  0.0000000000000000e+00  0.0000000000000000e+00  0.0000000000000000e+00  0.0000000000000000e+00  0.0000000000000000e+00  0.0000000000000000e+00  0.0000000000000000e+00  0.0000000000000000e+00  0.0000000000000000e+00  0.0000000000000000e+00  0.0000000000000000e+00  0.0000000000000000e+00  0.0000000000000000e+00  0.0000000000000000e+00  0.0000000000000000e+00  0.0000000000000000e+00  0.0000000000000000e+00  0.0000000000000000e+00  0.0000000000000000e+00  0.0000000000000000e+00  0.0000000000000000e+00  0.0000000000000000e+00  0.0000000000000000e+00  0.0000000000000000e+00  0.0000000000000000e+00  0.0000000000000000e+00  0.0000000000000000e+00  0.0000000000000000e+00  0.0000000000000000e+00  0.0000000000000000e+00  0.0000000000000000e+00  0.0000000000000000e+00  0.0000000000000000e+00  0.0000000000000000e+00  0.0000000000000000e+00  0.0000000000000000e+00  0.0000000000000000e+00  0.0000000000000000e+00  0.0000000000000000e+00  0.0000000000000000e+00  0.0000000000000000e+00  0.0000000000000000e+00  0.0000000000000000e+00  0.0000000000000000e+00  0.0000000000000000e+00  0.0000000000000000e+00  0.0000000000000000e+00  0.0000000000000000e+00  0.0000000000000000e+00  0.0000000000000000e+00  0.0000000000000000e+00  0.0000000000000000e+00  0.0000000000000000e+00  0.0000000000000000e+00  0.0000000000000000e+00  0.0000000000000000e+00  0.0000000000000000e+00  0.0000000000000000e+00  0.0000000000000000e+00  0.0000000000000000e+00  0.0000000000000000e+00  0.0000000000000000e+00  0.0000000000000000e+00  0.0000000000000000e+00  0.0000000000000000e+00  0.0000000000000000e+00  0.0000000000000000e+00  0.0000000000000000e+00  0.0000000000000000e+00  0.0000000000000000e+00  0.0000000000000000e+00  0.0000000000000000e+00  0.0000000000000000e+00  0.0000000000000000e+00  0.0000000000000000e+00  0.0000000000000000e+00  0.0000000000000000e+00  0.0000000000000000e+00  0.0000000000000000e+00  0.0000000000000000e+00  0.0000000000000000e+00  0.0000000000000000e+00  0.0000000000000000e+00  0.0000000000000000e+00  0.0000000000000000e+00  0.0000000000000000e+00  0.0000000000000000e+00  0.0000000000000000e+00  0.0000000000000000e+00  0.0000000000000000e+00  0.0000000000000000e+00  0.0000000000000000e+00  0.0000000000000000e+00  0.0000000000000000e+00  0.0000000000000000e+00  0.0000000000000000e+00  0.0000000000000000e+00  0.0000000000000000e+00  0.0000000000000000e+00  0.0000000000000000e+00  0.0000000000000000e+00  0.0000000000000000e+00  0.0000000000000000e+00  0.0000000000000000e+00  0.0000000000000000e+00  0.0000000000000000e+00  0.0000000000000000e+00  0.0000000000000000e+00  0.0000000000000000e+00  0.0000000000000000e+00  0.0000000000000000e+00  0.0000000000000000e+00  0.0000000000000000e+00  0.0000000000000000e+00  0.0000000000000000e+00  0.0000000000000000e+00  0.0000000000000000e+00  0.0000000000000000e+00  0.0000000000000000e+00  0.0000000000000000e+00  0.0000000000000000e+00  0.0000000000000000e+00  0.0000000000000000e+00  0.0000000000000000e+00  0.0000000000000000e+00  0.0000000000000000e+00  0.0000000000000000e+00  0.0000000000000000e+00  0.0000000000000000e+00  0.0000000000000000e+00  0.0000000000000000e+00  0.0000000000000000e+00  0.0000000000000000e+00  0.0000000000000000e+00  0.0000000000000000e+00  0.0000000000000000e+00  0.0000000000000000e+00  0.0000000000000000e+00  0.0000000000000000e+00  0.0000000000000000e+00  0.0000000000000000e+00  0.0000000000000000e+00  0.0000000000000000e+00  0.0000000000000000e+00  0.0000000000000000e+00  0.0000000000000000e+00  0.0000000000000000e+00  0.0000000000000000e+00  0.0000000000000000e+00  0.0000000000000000e+00  0.0000000000000000e+00  0.0000000000000000e+00  0.0000000000000000e+00  0.0000000000000000e+00  0.0000000000000000e+00  0.0000000000000000e+00  0.0000000000000000e+00  0.0000000000000000e+00  0.0000000000000000e+00  0.0000000000000000e+00  0.0000000000000000e+00  0.0000000000000000e+00  0.0000000000000000e+00  0.0000000000000000e+00  0.0000000000000000e+00  0.0000000000000000e+00  0.0000000000000000e+00  0.0000000000000000e+00  0.0000000000000000e+00  0.0000000000000000e+00  0.0000000000000000e+00  0.0000000000000000e+00  0.0000000000000000e+00  0.0000000000000000e+00  0.0000000000000000e+00  0.0000000000000000e+00  0.0000000000000000e+00  0.0000000000000000e+00  0.0000000000000000e+00  0.0000000000000000e+00  0.0000000000000000e+00  0.0000000000000000e+00  0.0000000000000000e+00  0.0000000000000000e+00  0.0000000000000000e+00  0.0000000000000000e+00  0.0000000000000000e+00  0.0000000000000000e+00  0.0000000000000000e+00  0.0000000000000000e+00  0.0000000000000000e+00  0.0000000000000000e+00  0.0000000000000000e+00  0.0000000000000000e+00  0.0000000000000000e+00  0.0000000000000000e+00  0.0000000000000000e+00  0.0000000000000000e+00  0.0000000000000000e+00  0.0000000000000000e+00  0.0000000000000000e+00  0.0000000000000000e+00  0.0000000000000000e+00  0.0000000000000000e+00  0.0000000000000000e+00  0.0000000000000000e+00  0.0000000000000000e+00  0.0000000000000000e+00  0.0000000000000000e+00  0.0000000000000000e+00  0.0000000000000000e+00  0.0000000000000000e+00  0.0000000000000000e+00  0.0000000000000000e+00  0.0000000000000000e+00  0.0000000000000000e+00  0.0000000000000000e+00  0.0000000000000000e+00  0.0000000000000000e+00  0.0000000000000000e+00  0.0000000000000000e+00  0.0000000000000000e+00  0.0000000000000000e+00  0.0000000000000000e+00  0.0000000000000000e+00  0.0000000000000000e+00  0.0000000000000000e+00  0.0000000000000000e+00  0.0000000000000000e+00  0.0000000000000000e+00  0.0000000000000000e+00  0.0000000000000000e+00  0.0000000000000000e+00  0.0000000000000000e+00  0.0000000000000000e+00  0.0000000000000000e+00  0.0000000000000000e+00  0.0000000000000000e+00  0.0000000000000000e+00  0.0000000000000000e+00  0.0000000000000000e+00  0.0000000000000000e+00  0.0000000000000000e+00  0.0000000000000000e+00  0.0000000000000000e+00  -4.8604827085801145e+162  2.9471585218811700e+158  -3.3583790408196428e+158  -6.3937619803634281e+160  -2.1605169824397846e+158  -1.3605844628189768e+160  -3.3710302283358284e+155  3.1821064776904072e+154  -4.5672129422412325e+155  -1.0481030145780193e+154  -1.2868195844243718e+155  -3.6854867717793270e+162  -7.8460242231575394e+155  -3.2036024807838266e+153  -8.7383927958658128e+160  -3.9985609657915466e+161  -4.9294167465536862e+153  3.9016276983676488e+153  -2.0038949214220625e+151  1.4552080752728005e+154  2.4217630456814985e+151  -6.3919931498220242e+152  -2.7761887404797721e+150  -1.9241567172684000e+160  -2.4603394654411499e+163  -2.1222616877931907e+161  -8.3409990193760421e+153  -8.5735570960259416e+151  3.3586165489765576e+153  1.3204706121760187e+160  7.4785819802715452e+150  1.6768306271205195e+163  -2.1496269630276738e+164  -1.5904258903859904e+163  -2.2777805819603029e+152  4.3971003959008059e+150  8.9006917817339161e+149  5.4798603029667196e+150  -2.2115330005663710e+151  4.7170933727306719e+158  -6.2597488181127557e+159  -7.4311869961830345e+153  -2.9783640045471750e+157  -5.2892321376045743e+163  -1.3446204132879851e+150  6.1808601995778352e+149  -1.3076686073273726e+150  -9.0365181784800939e+149  1.5087257236662552e+157  -7.4999598428503407e+155  5.2836984757627493e+156  5.5882722119095523e+155  8.1678352185104969e+157  -3.5066287654322575e+160  -2.6621495879555092e+153  1.7138595559249664e+161  -3.9812259676819494e+150  -1.9067057176960955e+151  4.2553586329613138e+160  1.9106141500681150e+150  -1.1230587785300427e+151  -1.3286597976853158e+154  1.7482495601257112e+149  -1.7767378699126124e+149  7.3494518921856860e+161  3.6643623602320187e+161  6.4880110147719986e+163  1.8759598959793623e+159  1.5494251028071164e+163  8.6136307229463851e+160  5.3442398004980903e+162  -1.3657891590545341e+157  -1.5199411854852688e+158  3.1312064931896133e+156  4.5270276758433488e+156  4.0381645612314852e+159  -1.1328644068787153e+150  -2.1611700870037741e+160  -1.5097964900645863e+162  -8.6053581235303776e+153  2.9612061281303972e+150  -2.5066321585063691e+158  1.9416716824836476e+150  -8.3243383321021699e+147  -9.0648626646512302e+148  -6.5112520647425639e+164  -3.5822664738355872e+149  -1.4138609396846439e+149  -2.1229221420903916e+148  -1.8197890211064831e+161  7.4624756700867339e+153  6.8846436082832222e+149  -6.9832062559757496e+155  -1.4530720601814515e+148  7.4998606920427557e+154  2.5593308060655804e+165  1.0975746733782894e+149  -3.6991693012213341e+149  -5.6225950467379399e+153  -1.4952978600986918e+152  1.8981811212383043e+155  5.4182346096431748e+154  1.0464387372781221e+149  2.1173480475096738e+160  -9.1476069762050415e+157  1.8581703890283021e+157  2.2961656307363113e+160  2.1993438457521406e+154  -2.6518529671800582e+154  1.9081883975945603e+149  7.3489333730869324e+159  1.1468513234890585e+152  -1.6042489987844559e+148  -1.9501388964325622e+157  1.0824931367701790e+158  -3.1355830889777092e+151  1.3984174899839731e+149  -8.7931897126103086e+146  -1.7660264891632575e+147  1.2912888063622052e+162  3.6717727657733956e+160  1.9288522178353205e+152  7.0265401173635465e+164  1.6377408099963787e+150  8.6300967778766690e+154  3.7515269497085572e+154  3.9913771934557628e+148  -3.0549158718605982e+148  9.3660402343113648e+152  -1.1494881395651885e+155  4.4831958334929802e+154  6.7964832541134672e+153  -1.5470758323397657e+157  -1.7667676534052423e+159  -1.3088310251937153e+155  -7.6947343205203865e+152  2.5421974274768599e+149  1.2018412125759091e+167  3.6887276266654441e+160  7.1081404452509051e+158  2.6964572700281854e+162  -3.6699465662623819e+166  -3.3114097318705426e+151  -2.9270089281415137e+163  -1.1292066795043535e+157  -1.0014342704328072e+152  -2.5851516216040894e+151  -4.8093191613193678e+159  4.0329541488901205e+162  3.5258936274192881e+153  2.0625754341298901e+148  -5.1842106716584045e+158  5.4905020150516613e+163  5.4092390612621590e+149  -2.7394100036620514e+151  1.1190098419026319e+149  -1.3723767583158129e+146  7.1866119786909931e+152  -1.2489537270895311e+148  4.6061309336685996e+146  -1.9469806083778868e+147  2.7308613985431920e+151  -2.3106166500263013e+156  1.0575475375642919e+149  2.9100296807270619e+152  4.8961540908949120e+158  1.4235278760372327e+154  -6.1037934635722498e+148  5.5189974240641211e+147  6.2910026521547877e+149  -1.8223490793407390e+157  -1.8842692434121632e+161  1.3238284855923361e+151  1.3611434745177754e+162  -7.0472944434633343e+147  4.6247452636807421e+157  1.4150863789570313e+148  4.6298253597275057e+152  2.7439784726885462e+147  6.2766399359069525e+157  -3.3431242661703727e+151  -8.5639381169439723e+159  -2.2695584786249597e+155  -1.2831765218003557e+164  -7.8020428366557922e+146  8.8845615000285123e+156  -4.9717470044079562e+155  -5.0071163131702311e+159  1.4657102104530906e+148  -3.7792025497177162e+150  8.1745080235709748e+147  5.3957933566687770e+163  -5.8737188473418613e+147  1.8584573975401877e+150  -1.4291115783129088e+161  -1.1099435062580541e+163  4.6551972051795968e+152  5.2371005892988059e+152  1.1439863421404184e+159  1.1022096298764925e+155  7.4629143985577522e+156  -1.8211173258712870e+156  -2.9367816227438842e+157  -2.5312563758077893e+153  1.1589809043295956e+155  3.4104066867124930e+151  -2.4824478525111206e+151  2.0534957624787477e+161  -1.7581780312725129e+150  -1.1775734379611552e+152  -1.1754564444911181e+152  -1.2643399434053464e+161  -1.8558870846246992e+160  3.5148268313709318e+151  1.4426037168891239e+147  5.6308410405430953e+153  -2.6125661561396045e+161  -1.8718040272598957e+148  6.9288116836709202e+154  1.6720769309426703e+154  -2.3100484772802279e+150  6.8463466595519820e+155  4.3126591296746274e+160  -7.1393466616830891e+154  -6.0141307556750689e+155  -1.6866780499893941e+148  2.9552151825001245e+152  1.2172005321725873e+148  -6.6637964653077729e+152  1.1029769418813035e+147  -2.7132936836508186e+148  1.9255567891845805e+148  3.3316971306180400e+148  1.1067873001627160e+151  -1.0199310450487521e+149  1.8516164124818669e+158  3.2951836424253176e+155  -1.2245804413230076e+151  6.2897669258279217e+150  -8.8274816399738006e+160  -3.6001416477422940e+161  -1.0086321609754784e+156  -3.2964907644669653e+156  -1.7257538648086223e+148  -3.7277216316830905e+159  -9.2217813705386866e+151  1.4982672773289963e+148  2.1741961069646075e+147  -8.1097210334493809e+160  8.4577583189363151e+157  1.9833139968520148e+157  -3.7293007972255770e+156  -8.1914463966708203e+163  -1.5652691310816578e+162  -1.6421683221782850e+149  8.6822121723327427e+161  -2.0857641614126387e+154  1.3225062525793305e+158  -3.3246954002955480e+148  -4.8905246812299990e+147  1.3296360152417777e+147  2.6341983134159452e+154  4.0119075610235396e+151  -1.7748576261908132e+159  3.4812395680012100e+160  -4.8907033673407545e+161  -6.9081872058337930e+150  -8.7828215941081970e+148  -1.7006469910831017e+147  3.1898472712116407e+156  8.8354089263165767e+145  6.4811940351790233e+162  -5.4029963207434743e+160  6.6366381536223966e+152  -2.3681980626924551e+150  -6.0775181236747066e+152  -2.4376393524115490e+164  2.3184982205344087e+160  -1.1424386429160992e+160  4.2390663981857444e+158  7.4850932482326024e+159  2.8770643733168052e+161  2.7852609926704826e+162  -3.2436533082940053e+157  9.5497821582316385e+154  -1.5199676208013364e+152  -2.3996485777918095e+165  3.9775151684838333e+148  -2.0821282190480286e+151  -2.8048472727201080e+161  -1.6775520747926578e+163  5.6170475501478378e+160  -3.9736832135197962e+155  6.6818382614883926e+155  -4.0683367662605759e+165  -8.6891509642098919e+147  -1.9417717578831451e+161  6.0833009752172306e+147  9.6487526208649196e+146  -1.5085633457563163e+147  1.0806887696998566e+161  -3.0750977302816397e+160  -5.7052978262119464e+163  -1.4029087786424744e+164  -5.3042700915102435e+156  -4.0085066979472610e+153  -4.2888681355290892e+153  1.2580885767011255e+157  4.6615968330298404e+157  -1.0186489944663463e+155  -2.3923005230001621e+159  1.7847362329295171e+156  8.2055376906203299e+161  2.6193803404306623e+151  -7.3947283482888373e+160  -1.4970471788212435e+160  9.3618862252503826e+157  -1.6370754231046460e+152  3.9678627338642369e+152  2.5432788482224097e+148  -2.7492919858609190e+151  8.0823191005007903e+150  3.8528854173868317e+148  2.7290018845654202e+162  2.3982501709611926e+146  4.1911243803674501e+146  -2.9125268525712960e+149  -4.7365394574521039e+160  9.2945888390628870e+157  1.9318736024556551e+161  -3.9605206887223666e+147  -7.9863342797776275e+152  1.0030250355293271e+155  7.0327564793961881e+159  -1.9495538548388219e+160  -1.7394553422995316e+153  -1.5423252824449182e+159  -2.4751005199567178e+158  -2.0266846726043710e+166  2.4467879901652054e+153  -6.3303229165200149e+151  7.9923069959337655e+157  5.9769864881658990e+148  2.8551816425444649e+149  -4.6154207754402588e+155  1.6827058841948646e+147  4.7359654947072311e+151  5.0954179605363479e+153  -6.3676940130230137e+145  5.3087457593637288e+153  -4.9327862137945880e+154  -9.0271052838532035e+147  -5.5741203988690165e+150  1.1214453097181677e+147  -2.6198104449260451e+149  8.8042207406856241e+149  -6.6320497664840740e+155  -7.5024185448356776e+163  5.7576778039798746e+148  6.3513456146502424e+161  -2.3456460654234861e+163  2.4049661716721125e+151  6.2634009742358507e+147  -4.0830466196084048e+156  -1.7294785123894937e+150  -6.4900053707995174e+164  1.6019949755624330e+150  2.4370889419365060e+152  -5.1793793563572709e+161  3.9186553902376708e+149  -1.6354262031492760e+145  -2.3523364788778576e+147  -9.1182864556325208e+151  -5.5586341729679894e+158  1.2070108635756470e+159  -1.3088182405803766e+154  -2.4330237038392163e+151  8.0761287368252132e+163  -2.9576203613932507e+155  1.3161139901936759e+148  1.4524366820324503e+158  -3.4732029514071400e+146  -1.2358446661872453e+150  3.7716169691305078e+158  -8.9313490699686958e+146  -5.6802834971261466e+165  1.8023429297003104e+147  -5.2821945656594436e+150  -7.5522755643576002e+145  -3.2434580317962400e+159  3.3941616368063240e+155  4.4805138360260532e+152  2.7180374694869264e+157  9.4340243092406499e+144  -1.6791865028158104e+151  -1.5660586349476101e+160  -9.1078393605196461e+149  1.0228994923598959e+158  3.7584434259844611e+153  1.8901114503068666e+146  -1.8072512430303324e+146  -9.0893593919185891e+158  -9.8453298349936556e+148  1.2225588100288842e+160  -2.5127753638646409e+152  -1.1381593235493357e+161  1.4037271839031996e+155  4.5776916905091248e+147  -1.5246715535803823e+150  -5.4702733718206329e+150  -1.2727789779012984e+150  -2.4571654124668681e+150  -5.7259982404374122e+161  7.4603787371872587e+162  -1.2320565524214503e+166  -5.6177281468224778e+161  1.0580221708900635e+151  -2.3972483556821255e+164  1.9919935943226073e+161  7.1722547145661390e+149  4.0590061162142979e+146  1.7107523736565642e+147  1.8902431732941326e+155  -1.1839783355692225e+154  6.1395788060270604e+152  1.7309087008877689e+161  5.4736589687739592e+153  1.5630705809298412e+147  -2.1834721857644386e+146  -2.7695683095023920e+148  -3.1902570080555629e+155  1.7174842339360799e+150  -6.9494801381372421e+153  -2.3513738838591189e+149  -2.4790364197373567e+149  2.6218825498969691e+150  -6.8774659273906233e+155  -9.6077744446290792e+149  4.4045505511020890e+157  4.5110101648488441e+157  -1.8101832940775040e+158  1.0760479519665744e+156  4.8423383288933733e+157  -4.2448057889981605e+158  -1.6394120121779867e+150  -1.0041652242983729e+162  -3.4916179129630857e+151  1.4627857241415659e+164  -6.3798590501804224e+154  -1.0307767138993574e+160  -9.4346891017743881e+157  -4.8621954492069642e+165  -5.1123487648117451e+150  -2.6333933434004613e+147  -2.0539325709634081e+150  -3.5228562671153987e+162  -3.5215820374495075e+153  3.3195745641808542e+158  4.7252782702622719e+158  -2.5398991447716554e+149  3.0226660900723251e+155  2.2910138434624816e+147  8.8993928730503640e+164  9.8216139159362767e+164  -3.5481899572299708e+162  -3.5786453174512972e+152  -3.4216610237797664e+149  -2.0819655791931089e+150  -2.4487433453665574e+153  -4.8360366299122781e+155  -3.4763599227006777e+157  -5.6401799291011832e+149  2.2154618931631182e+159  -3.3329013884936072e+156  -8.2996436199554400e+151  6.1544140136873975e+164  1.1655546374408326e+153  1.3568687458519697e+158  5.4479273705216460e+154  2.5861929860769900e+156  1.5529629674602798e+154  -7.5935931627637603e+151  -2.8722087959120040e+146  5.6541133842933261e+150  -5.33