<?xml version="1.0"?>
<VTKFile type="UnstructuredGrid"  version="0.1"  >
<UnstructuredGrid>
<Piece  NumberOfPoints="20054" NumberOfCells="39478">
<Points>
<DataArray  type="Float64"  NumberOfComponents="3"  format="ascii">1 0 0  0.9997998037428526 0.02000880895389431 0  0.9991992951284931 0.04000960653046352 0  0.9981987145960756 0.05999438456007805 0  0.9967984627705549 0.07995514128721501 0  0.9949991003022806 0.09988388457430118 0  0.9928013476425149 0.1197726351017051 0  0.9902060847549715 0.139613429562597 0  0.987214350763483 0.1593983238513969 0  0.9838273435359444 0.1791193962445356 0  0.9800464192046954 0.198768750572253 0  0.9758730916235354 0.2183385193801655 0  0.9713090317615876 0.237820867079336 0  0.9663560670342555 0.2572079930835849 0  0.9610161805715396 0.2764921349327862 0  0.9552915104240066 0.2956655714008991 0  0.9491843487067304 0.3147206255874884 0  0.9426971406815462 0.3336496679914983 0  0.9358324837779861 0.3524451195660473 0  0.9285931265532873 0.3710994547530225 0  0.9209819675918909 0.3896052044962556 0  0.9130020543448703 0.4079549592320781 0  0.9046565819097542 0.4261413718560547 0  0.8959488917512338 0.4441571606647087 0  0.8868824703632656 0.4619951122710622 0  0.8774609478731046 0.4796480844928215 0  0.8676880965878291 0.4971090092120542 0  0.8575678294839372 0.5143708952052096 0  0.8471041986406199 0.5314268309423539 0  0.8363013936173391 0.5482699873544935 0  0.8251637397763597 0.5648936205678837 0  0.8136956965509062 0.5812910746042258 0  0.8019018556596399 0.5974557840456699 0  0.7897869392681683 0.6133812766635599 0  0.777355798098326 0.6290611760098652 0  0.7646134094859813 0.6444892039702628 0  0.7515648753881492 0.6596591832778468 0  0.7382154203402046 0.6745650399864606 0  0.7245703893640189 0.6892008059026586 0  0.7106352458278521 0.7035606209753273 0  0.6964155692588616 0.7176387356420051 0  0.6819170531091018 0.7314295131309636 0  0.6671455024759069 0.7449274317181303 0  0.6521068317775753 0.7581270869379442 0  0.6368070623852795 0.7710231937472638 0  0.6212523202121545 0.7836105886414595 0  0.6054488332605282 0.795884231721841 0  0.5894029291282759 0.8078392087135958 0  0.5731210324752972 0.8194707329334278 0  0.5566096624511305 0.8307741472061095 0  0.5398754300847343 0.8417449257291802 0  0.5229250356374803 0.8523786758850435 0  0.5057652659204196 0.8626711399997378 0  0.4884029915768944 0.8726181970476778 0  0.4708451643315825 0.8822158643016828 0  0.45309881420708 0.8914602989276292 0  0.4351710467091336 0.9003477995230937 0  0.4170690399816468 0.9088748075993677 0  0.398800041932607 0.9170379090062476 0  0.3803713673320772 0.9248338352990368 0  0.3617903948834157 0.9322594650472057 0  0.3430645642688987 0.9393118250841893 0  0.3242013731709288 0.9459880916978206 0  0.3052083742700172 0.952285591760924 0  0.2860931722207478 0.9582018038016155 0  0.2668634206069304 0.963734359012881 0  0.2475268188771628 0.9688810422010291 0  0.2280911092620296 0.9736397926726377 0  0.2085640736741707 0.9780087050596407 0  0.1889535305924618 0.9819860300822225 0  0.1692673319315541 0.9855701752492174 0  0.1495133598980264 0.9887597054957302 0  0.1296995238344084 0.9915533437577263 0  0.1098337570523395 0.9939499714833577 0  0.08992401365612977 0.9959486290808237 0  0.06997826535799723 0.9975485163025836 0  0.05000449828625179 0.9987489925657699 0  0.03001070978771124 0.9995495772086734 0  0.01000490522562346 0.9999499496831961 0  -0.01000490522562333 0.9999499496831961 0  -0.03001070978771133 0.9995495772086734 0  -0.05000449828625144 0.9987489925657699 0  -0.06997826535799688 0.9975485163025836 0  -0.08992401365612987 0.9959486290808237 0  -0.1098337570523394 0.9939499714833577 0  -0.1296995238344082 0.9915533437577263 0  -0.1495133598980262 0.9887597054957303 0  -0.1692673319315537 0.9855701752492174 0  -0.1889535305924614 0.9819860300822226 0  -0.2085640736741705 0.9780087050596407 0  -0.2280911092620295 0.9736397926726377 0  -0.2475268188771627 0.9688810422010291 0  -0.2668634206069302 0.9637343590128811 0  -0.2860931722207475 0.9582018038016156 0  -0.3052083742700173 0.9522855917609239 0  -0.3242013731709289 0.9459880916978205 0  -0.3430645642688986 0.9393118250841894 0  -0.3617903948834154 0.9322594650472058 0  -0.380371367332077 0.924833835299037 0  -0.3988000419326071 0.9170379090062476 0  -0.4170690399816465 0.9088748075993678 0  -0.4351710467091335 0.9003477995230939 0  -0.4530988142070799 0.8914602989276292 0  -0.4708451643315824 0.8822158643016829 0  -0.4884029915768945 0.8726181970476778 0  -0.5057652659204197 0.8626711399997378 0  -0.5229250356374801 0.8523786758850437 0  -0.5398754300847342 0.8417449257291804 0  -0.5566096624511303 0.8307741472061098 0  -0.5731210324752971 0.8194707329334279 0  -0.589402929128276 0.8078392087135957 0  -0.6054488332605281 0.7958842317218411 0  -0.6212523202121542 0.7836105886414597 0  -0.6368070623852793 0.7710231937472639 0  -0.652106831777575 0.7581270869379444 0  -0.6671455024759069 0.7449274317181304 0  -0.6819170531091018 0.7314295131309636 0  -0.6964155692588616 0.7176387356420052 0  -0.7106352458278521 0.7035606209753273 0  -0.7245703893640187 0.6892008059026588 0  -0.7382154203402043 0.6745650399864608 0  -0.751564875388149 0.6596591832778469 0  -0.7646134094859813 0.6444892039702628 0  -0.7773557980983258 0.6290611760098654 0  -0.7897869392681683 0.6133812766635599 0  -0.8019018556596398 0.59745578404567 0  -0.8136956965509062 0.5812910746042258 0  -0.8251637397763595 0.5648936205678839 0  -0.836301393617339 0.5482699873544935 0  -0.8471041986406197 0.5314268309423542 0  -0.8575678294839372 0.5143708952052097 0  -0.8676880965878292 0.497109009212054 0  -0.8774609478731045 0.4796480844928216 0  -0.8868824703632656 0.4619951122710621 0  -0.8959488917512338 0.4441571606647088 0  -0.904656581909754 0.426141371856055 0  -0.9130020543448703 0.4079549592320783 0  -0.920981967591891 0.3896052044962555 0  -0.9285931265532872 0.3710994547530226 0  -0.9358324837779861 0.3524451195660473 0  -0.9426971406815462 0.3336496679914984 0  -0.9491843487067303 0.3147206255874888 0  -0.9552915104240065 0.2956655714008993 0  -0.9610161805715396 0.2764921349327862 0  -0.9663560670342555 0.2572079930835851 0  -0.9713090317615876 0.2378208670793361 0  -0.9758730916235353 0.2183385193801658 0  -0.9800464192046954 0.198768750572253 0  -0.9838273435359444 0.1791193962445354 0  -0.987214350763483 0.159398323851397 0  -0.9902060847549714 0.1396134295625972 0  -0.9928013476425149 0.1197726351017052 0  -0.9949991003022804 0.09988388457430147 0  -0.9967984627705549 0.07995514128721509 0  -0.9981987145960756 0.05999438456007793 0  -0.9991992951284931 0.04000960653046362 0  -0.9997998037428526 0.02000880895389464 0  -1 1.224646799147353e-16 0  -0.9997998037428526 -0.0200088089538944 0  -0.9991992951284931 -0.04000960653046338 0  -0.9981987145960756 -0.05999438456007812 0  -0.9967984627705549 -0.07995514128721484 0  -0.9949991003022806 -0.09988388457430078 0  -0.9928013476425149 -0.1197726351017049 0  -0.9902060847549715 -0.1396134295625965 0  -0.9872143507634831 -0.1593983238513963 0  -0.9838273435359444 -0.1791193962445356 0  -0.9800464192046953 -0.1987687505722532 0  -0.9758730916235354 -0.2183385193801655 0  -0.9713090317615876 -0.2378208670793363 0  -0.9663560670342556 -0.2572079930835848 0  -0.9610161805715396 -0.276492134932786 0  -0.9552915104240066 -0.2956655714008991 0  -0.9491843487067305 -0.3147206255874881 0  -0.9426971406815464 -0.3336496679914978 0  -0.9358324837779862 -0.3524451195660471 0  -0.9285931265532875 -0.371099454753022 0  -0.9209819675918909 -0.3896052044962557 0  -0.9130020543448704 -0.407954959232078 0  -0.9046565819097541 -0.4261413718560548 0  -0.8959488917512338 -0.4441571606647086 0  -0.8868824703632655 -0.4619951122710623 0  -0.8774609478731046 -0.4796480844928214 0  -0.8676880965878293 -0.4971090092120538 0  -0.8575678294839373 -0.5143708952052095 0  -0.84710419864062 -0.5314268309423537 0  -0.8363013936173395 -0.5482699873544929 0  -0.8251637397763596 -0.5648936205678838 0  -0.8136956965509061 -0.5812910746042259 0  -0.8019018556596399 -0.5974557840456699 0  -0.7897869392681682 -0.61338127666356 0  -0.777355798098326 -0.6290611760098652 0  -0.7646134094859816 -0.6444892039702625 0  -0.7515648753881492 -0.6596591832778468 0  -0.7382154203402048 -0.6745650399864603 0  -0.7245703893640192 -0.6892008059026583 0  -0.7106352458278522 -0.7035606209753272 0  -0.6964155692588621 -0.7176387356420046 0  -0.6819170531091017 -0.7314295131309637 0  -0.667145502475907 -0.7449274317181303 0  -0.6521068317775756 -0.758127086937944 0  -0.6368070623852792 -0.7710231937472641 0  -0.6212523202121544 -0.7836105886414596 0  -0.6054488332605283 -0.795884231721841 0  -0.5894029291282762 -0.8078392087135956 0  -0.5731210324752977 -0.8194707329334274 0  -0.5566096624511304 -0.8307741472061095 0  -0.5398754300847344 -0.8417449257291802 0  -0.5229250356374798 -0.8523786758850437 0  -0.5057652659204195 -0.8626711399997379 0  -0.4884029915768943 -0.872618197047678 0  -0.4708451643315825 -0.8822158643016828 0  -0.4530988142070805 -0.8914602989276289 0  -0.4351710467091333 -0.900347799523094 0  -0.4170690399816467 -0.9088748075993677 0  -0.3988000419326073 -0.9170379090062475 0  -0.3803713673320777 -0.9248338352990366 0  -0.3617903948834162 -0.9322594650472055 0  -0.3430645642688988 -0.9393118250841893 0  -0.3242013731709283 -0.9459880916978207 0  -0.3052083742700169 -0.9522855917609241 0  -0.2860931722207477 -0.9582018038016155 0  -0.2668634206069305 -0.963734359012881 0  -0.2475268188771631 -0.968881042201029 0  -0.2280911092620301 -0.9736397926726376 0  -0.2085640736741706 -0.9780087050596407 0  -0.1889535305924619 -0.9819860300822225 0  -0.1692673319315544 -0.9855701752492173 0  -0.1495133598980269 -0.9887597054957302 0  -0.1296995238344092 -0.9915533437577262 0  -0.1098337570523396 -0.9939499714833577 0  -0.08992401365612945 -0.9959486290808237 0  -0.06997826535799691 -0.9975485163025836 0  -0.05000449828625168 -0.9987489925657699 0  -0.030010709787
[...]
<PointData  Scalars="Displacement"> 
<DataArray  type="Float64"  Name="Displacement"  format="ascii">0.0000000000000000e+00  0.0000000000000000e+00  0.0000000000000000e+00  0.0000000000000000e+00  0.0000000000000000e+00  0.0000000000000000e+00  0.0000000000000000e+00  0.0000000000000000e+00  0.0000000000000000e+00  0.0000000000000000e+00  0.0000000000000000e+00  0.0000000000000000e+00  0.0000000000000000e+00  0.0000000000000000e+00  0.0000000000000000e+00  0.0000000000000000e+00  0.0000000000000000e+00  0.0000000000000000e+00  0.0000000000000000e+00  0.0000000000000000e+00  0.0000000000000000e+00  0.0000000000000000e+00  0.0000000000000000e+00  0.0000000000000000e+00  0.0000000000000000e+00  0.0000000000000000e+00  0.0000000000000000e+00  0.0000000000000000e+00  0.0000000000000000e+00  0.0000000000000000e+00  0.0000000000000000e+00  0.0000000000000000e+00  0.0000000000000000e+00  0.0000000000000000e+00  0.0000000000000000e+00  0.0000000000000000e+00  0.0000000000000000e+00  0.0000000000000000e+00  0.0000000000000000e+00  0.0000000000000000e+00  0.0000000000000000e+00  0.0000000000000000e+00  0.0000000000000000e+00  0.0000000000000000e+00  0.0000000000000000e+00  0.0000000000000000e+00  0.0000000000000000e+00  0.0000000000000000e+00  0.0000000000000000e+00  0.0000000000000000e+00  0.0000000000000000e+00  0.0000000000000000e+00  0.0000000000000000e+00  0.0000000000000000e+00  0.0000000000000000e+00  0.0000000000000000e+00  0.0000000000000000e+00  0.0000000000000000e+00  0.0000000000000000e+00  0.0000000000000000e+00  0.0000000000000000e+00  0.0000000000000000e+00  0.0000000000000000e+00  0.0000000000000000e+00  0.0000000000000000e+00  0.0000000000000000e+00  0.0000000000000000e+00  0.0000000000000000e+00  0.0000000000000000e+00  0.0000000000000000e+00  0.0000000000000000e+00  0.0000000000000000e+00  0.0000000000000000e+00  0.0000000000000000e+00  0.0000000000000000e+00  0.0000000000000000e+00  0.0000000000000000e+00  0.0000000000000000e+00  0.0000000000000000e+00  0.0000000000000000e+00  0.0000000000000000e+00  0.0000000000000000e+00  0.0000000000000000e+00  0.0000000000000000e+00  0.0000000000000000e+00  0.0000000000000000e+00  0.0000000000000000e+00  0.0000000000000000e+00  0.0000000000000000e+00  0.0000000000000000e+00  0.0000000000000000e+00  0.0000000000000000e+00  0.0000000000000000e+00  0.0000000000000000e+00  0.0000000000000000e+00  0.0000000000000000e+00  0.0000000000000000e+00  0.0000000000000000e+00  0.0000000000000000e+00  0.0000000000000000e+00  0.0000000000000000e+00  0.0000000000000000e+00  0.0000000000000000e+00  0.0000000000000000e+00  0.0000000000000000e+00  0.0000000000000000e+00  0.0000000000000000e+00  0.0000000000000000e+00  0.0000000000000000e+00  0.0000000000000000e+00  0.0000000000000000e+00  0.0000000000000000e+00  0.0000000000000000e+00  0.0000000000000000e+00  0.0000000000000000e+00  0.0000000000000000e+00  0.0000000000000000e+00  0.0000000000000000e+00  0.0000000000000000e+00  0.0000000000000000e+00  0.0000000000000000e+00  0.0000000000000000e+00  0.0000000000000000e+00  0.0000000000000000e+00  0.0000000000000000e+00  0.0000000000000000e+00  0.0000000000000000e+00  0.0000000000000000e+00  0.0000000000000000e+00  0.0000000000000000e+00  0.0000000000000000e+00  0.0000000000000000e+00  0.0000000000000000e+00  0.0000000000000000e+00  0.0000000000000000e+00  0.0000000000000000e+00  0.0000000000000000e+00  0.0000000000000000e+00  0.0000000000000000e+00  0.0000000000000000e+00  0.0000000000000000e+00  0.0000000000000000e+00  0.0000000000000000e+00  0.0000000000000000e+00  0.0000000000000000e+00  0.0000000000000000e+00  0.0000000000000000e+00  0.0000000000000000e+00  0.0000000000000000e+00  0.0000000000000000e+00  0.0000000000000000e+00  0.0000000000000000e+00  0.0000000000000000e+00  0.0000000000000000e+00  0.0000000000000000e+00  0.0000000000000000e+00  0.0000000000000000e+00  0.0000000000000000e+00  0.0000000000000000e+00  0.0000000000000000e+00  0.0000000000000000e+00  0.0000000000000000e+00  0.0000000000000000e+00  0.0000000000000000e+00  0.0000000000000000e+00  0.0000000000000000e+00  0.0000000000000000e+00  0.0000000000000000e+00  0.0000000000000000e+00  0.0000000000000000e+00  0.0000000000000000e+00  0.0000000000000000e+00  0.0000000000000000e+00  0.0000000000000000e+00  0.0000000000000000e+00  0.0000000000000000e+00  0.0000000000000000e+00  0.0000000000000000e+00  0.0000000000000000e+00  0.0000000000000000e+00  0.0000000000000000e+00  0.0000000000000000e+00  0.0000000000000000e+00  0.0000000000000000e+00  0.0000000000000000e+00  0.0000000000000000e+00  0.0000000000000000e+00  0.0000000000000000e+00  0.0000000000000000e+00  0.0000000000000000e+00  0.0000000000000000e+00  0.0000000000000000e+00  0.0000000000000000e+00  0.0000000000000000e+00  0.0000000000000000e+00  0.0000000000000000e+00  0.0000000000000000e+00  0.0000000000000000e+00  0.0000000000000000e+00  0.0000000000000000e+00  0.0000000000000000e+00  0.0000000000000000e+00  0.0000000000000000e+00  0.0000000000000000e+00  0.0000000000000000e+00  0.0000000000000000e+00  0.0000000000000000e+00  0.0000000000000000e+00  0.0000000000000000e+00  0.0000000000000000e+00  0.0000000000000000e+00  0.0000000000000000e+00  0.0000000000000000e+00  0.0000000000000000e+00  0.0000000000000000e+00  0.0000000000000000e+00  0.0000000000000000e+00  0.0000000000000000e+00  0.0000000000000000e+00  0.0000000000000000e+00  0.0000000000000000e+00  0.0000000000000000e+00  0.0000000000000000e+00  0.0000000000000000e+00  0.0000000000000000e+00  0.0000000000000000e+00  0.0000000000000000e+00  0.0000000000000000e+00  0.0000000000000000e+00  0.0000000000000000e+00  0.0000000000000000e+00  0.0000000000000000e+00  0.0000000000000000e+00  0.0000000000000000e+00  0.0000000000000000e+00  0.0000000000000000e+00  0.0000000000000000e+00  0.0000000000000000e+00  0.0000000000000000e+00  0.0000000000000000e+00  0.0000000000000000e+00  0.0000000000000000e+00  0.0000000000000000e+00  0.0000000000000000e+00  0.0000000000000000e+00  0.0000000000000000e+00  0.0000000000000000e+00  0.0000000000000000e+00  0.0000000000000000e+00  0.0000000000000000e+00  0.0000000000000000e+00  0.0000000000000000e+00  0.0000000000000000e+00  0.0000000000000000e+00  0.0000000000000000e+00  0.0000000000000000e+00  0.0000000000000000e+00  0.0000000000000000e+00  0.0000000000000000e+00  0.0000000000000000e+00  0.0000000000000000e+00  0.0000000000000000e+00  0.0000000000000000e+00  0.0000000000000000e+00  0.0000000000000000e+00  0.0000000000000000e+00  0.0000000000000000e+00  0.0000000000000000e+00  0.0000000000000000e+00  0.0000000000000000e+00  0.0000000000000000e+00  0.0000000000000000e+00  0.0000000000000000e+00  0.0000000000000000e+00  0.0000000000000000e+00  0.0000000000000000e+00  0.0000000000000000e+00  0.0000000000000000e+00  0.0000000000000000e+00  0.0000000000000000e+00  0.0000000000000000e+00  0.0000000000000000e+00  0.0000000000000000e+00  0.0000000000000000e+00  0.0000000000000000e+00  0.0000000000000000e+00  0.0000000000000000e+00  0.0000000000000000e+00  0.0000000000000000e+00  0.0000000000000000e+00  0.0000000000000000e+00  0.0000000000000000e+00  0.0000000000000000e+00  0.0000000000000000e+00  0.0000000000000000e+00  0.0000000000000000e+00  0.0000000000000000e+00  0.0000000000000000e+00  0.0000000000000000e+00  0.0000000000000000e+00  0.0000000000000000e+00  0.0000000000000000e+00  0.0000000000000000e+00  0.0000000000000000e+00  0.0000000000000000e+00  0.0000000000000000e+00  0.0000000000000000e+00  0.0000000000000000e+00  0.0000000000000000e+00  0.0000000000000000e+00  0.0000000000000000e+00  0.0000000000000000e+00  0.0000000000000000e+00  0.0000000000000000e+00  -2.3262710924186216e-02  -1.0945056762501727e-01  -1.0957314810473898e-01  -1.0930171107928319e-01  -1.0982658079828879e-01  -1.0990846510034960e-01  -5.6842203749628721e-02  4.0217898117807425e-02  5.9220960774591748e-02  9.2023342213086917e-02  9.2088786038415790e-02  -3.6425477245541120e-02  1.2645797264700531e-01  1.2657009973386771e-01  -3.5068996578986975e-02  -3.4453001788736982e-02  1.4400062765166663e-01  1.4336980165146421e-01  1.4444024570004466e-01  1.4498125422620517e-01  1.4571715607491739e-01  1.4582053172125234e-01  1.4586335102844694e-01  -5.6676605142686749e-02  -5.6346223768942660e-02  -3.1151732730826141e-02  1.4142103264323463e-01  1.3931301505682836e-01  1.4241801157997849e-01  -1.0788698651751767e-01  1.4159055257660355e-01  -3.3437349981641343e-02  -2.8771880236776824e-02  -1.1046302287962340e-01  1.3463929398567101e-01  1.1962639886728491e-01  1.1652913662778958e-01  1.1486809271986573e-01  1.1439995832515741e-01  -7.6309787176702171e-02  -6.9088064278769887e-02  -6.0237169146709034e-02  -5.6603621831444136e-02  -2.7386122083176763e-02  1.0856260765594340e-01  1.0502614449443172e-01  1.0076675531746111e-01  1.0049271532339389e-01  -2.4191526035299317e-02  -3.3430059657165771e-02  1.0779688998858364e-01  -7.8667683387557419e-02  -4.8484312640066342e-02  -1.0464694437442132e-01  8.3729143663987413e-02  -2.6962075471193937e-02  1.0307662541354945e-01  8.3647607845771271e-02  -3.9862602835822443e-02  7.9566180876490700e-02  8.1403467836558913e-02  8.7125937436162773e-02  7.7652722554171438e-02  8.5046174189092966e-02  -4.0156613101125012e-02  -3.0872467701338994e-02  -5.3645034083882728e-02  -1.0482434499753436e-01  -5.2365946728183885e-02  -2.6290226708054185e-02  -3.9780989230875592e-02  -2.7893439647587937e-02  3.1242983802708797e-02  1.4692449161226325e-02  1.3681990255840916e-02  -4.5524671995950811e-02  7.4788716278259990e-02  -6.8155026489538820e-02  -4.4952937369073354e-02  7.6781798369398274e-02  6.5715247924571882e-02  -5.8885050954543224e-02  6.2016789542733521e-02  6.4146129702207511e-02  5.7897568457153381e-02  -2.5774904246559364e-02  6.0691856150622073e-02  5.4855753126288466e-02  5.5216633262813487e-02  -5.1989014258420264e-02  1.0431588257019626e-01  5.1253586732805986e-02  2.8070480544141997e-02  4.9750303122171616e-02  1.0359025457321196e-01  -2.6712890215743634e-02  6.1087506729849909e-02  4.6793486030422514e-02  1.1239520259931117e-01  1.2906401368197035e-01  6.7426344921728262e-02  1.1230405952545210e-01  4.6359022813761745e-02  -9.6222086446236268e-02  -8.8104347762069685e-02  -8.8186527238390919e-02  -8.4554388002407915e-02  1.2896790404062258e-01  1.1887607245506422e-01  3.3971313738145638e-02  -7.7492596131040842e-02  3.3221772882786417e-02  3.8091851222508140e-02  -1.8238152924704557e-02  -4.1321257324288688e-03  1.3221301853693956e-01  2.9456975909655864e-02  4.3390676226800179e-02  4.0684333953553288e-02  -2.5647720845355312e-02  -9.2195263699638721e-02  1.4490659438306919e-01  -3.4923982085306254e-02  8.1486669938837963e-02  1.4143783044099795e-01  9.3345160862374807e-02  4.0154618633985839e-02  2.5589719091220188e-02  1.4390820803832463e-01  1.4302428797994793e-01  8.9838106880100549e-02  1.4087026795250451e-01  3.1606507516275389e-02  -1.0628381925380814e-01  -2.4825297925128109e-02  1.2882775378433639e-01  3.5664539606054167e-02  -3.3894319609532458e-02  -5.1035589169168921e-02  -3.8587665164909878e-02  -2.5334859821638453e-02  -3.3727089571599519e-02  1.4031804173519780e-01  -7.6965465039029221e-02  -1.6469152029441689e-02  1.4056147666454255e-01  1.4266303315798151e-01  -3.5711274765205768e-02  -2.7560938125308267e-02  5.3993216095311575e-02  1.5583604706670874e-02  -1.0626445340159885e-02  -5.2109851310825593e-02  1.4554047253755328e-01  1.4538500426292650e-01  8.4837381400234932e-02  1.2634026665692227e-02  1.4309111054474097e-01  1.7637371378855390e-02  1.3067343777789165e-02  1.3480214371338686e-02  1.4136301699708648e-01  7.6253828134154156e-02  1.8230323654937656e-02  1.2467820576573721e-01  -1.0671517689842931e-01  1.4573065007140085e-01  4.3926694045972992e-02  1.2176192702836645e-02  1.4069879513481698e-01  -3.5894020997223164e-02  -2.4612299504960758e-02  1.4130390814470462e-01  -5.4384643545963722e-02  1.0089296748400325e-02  -1.0233511099514189e-01  8.9651061684903818e-03  1.4564517107929500e-01  1.0032652575228389e-02  -1.1023488415925975e-01  1.3716098990519618e-01  -9.6550383274644033e-02  -2.5090594224962324e-02  -3.0162955477134681e-02  1.6445065930030582e-02  -7.9318453169143405e-02  5.8212731770256911e-02  -1.1026533865869745e-01  1.0956170239185267e-02  1.1122697318120865e-01  1.2369321777916586e-02  -2.7023341590690659e-02  7.5360333778532974e-03  1.0958159829683201e-02  -9.5400354896514439e-02  -4.1121778792534251e-02  1.4609208138766541e-01  1.3400348374985574e-01  -1.0607099932439147e-01  7.7389169721273340e-02  -6.6061177369285042e-03  -3.9879846962928581e-02  -1.0995229219086808e-01  6.4245252989241761e-02  -5.4302610336395074e-03  1.3362404367630795e-01  1.3240502997872802e-01  -3.1330620242310189e-02  6.1606489094068892e-02  1.3213009331332110e-01  1.4476665640450351e-01  -2.7444742326166113e-02  -2.4588276836501780e-02  7.6318967653277378e-03  6.6715886267314428e-03  1.4191336399263857e-01  -1.0881713689187657e-01  1.0005813251068588e-02  5.5409135086052420e-02  8.6984951333152524e-02  8.9546738806234233e-02  1.0883340760153246e-01  -6.8483165872685964e-02  3.8235959648137995e-02  8.4308108788457056e-02  1.0330389856082927e-02  1.2902762239506910e-01  4.4130728571963717e-03  8.6128509344875537e-02  6.4873239509002471e-03  2.6762809101087307e-02  1.0896255873978534e-02  4.3693562270691409e-03  1.0420492710827174e-01  5.5406674564936797e-03  -1.0181855286775966e-01  -1.1253460237207445e-02  1.1932462356549339e-01  1.2197111602595091e-01  -3.3201753875169215e-02  -3.8404704042018525e-02  6.0940751492294984e-02  2.2572090955526172e-02  2.8164144746520368e-02  -1.0869390131673785e-01  4.4244053059961990e-03  4.3486812598904348e-03  4.1497428752652532e-03  -5.0518247722614221e-02  -1.0974381658342107e-01  -6.7213370113012233e-02  -7.4934687886123369e-02  -3.4592130013619500e-02  -2.4590374851754301e-02  1.1164530060890228e-01  -5.8325983924803072e-02  1.4309766383552247e-01  -8.3254382106347127e-02  1.9360538133189178e-02  3.6505786784004996e-03  2.0476809794819417e-02  1.2717322924453173e-01  1.2182440768161341e-01  -2.9509065697807358e-02  -1.0818055919088179e-01  -6.2656769281688868e-02  1.0447015191551079e-01  3.5794809787403688e-02  2.0059895073770245e-02  -2.9719234496965993e-02  2.5803738454946313e-03  -5.1743481108052089e-02  -1.0592274445671945e-01  1.4588287349627235e-01  1.3278954708570218e-01  1.2493402903991507e-01  -4.3781607479615257e-02  -4.0442931737709659e-02  -5.3029758266413693e-02  -4.7247886276221042e-02  -3.8884573843612227e-02  -3.1006834795675283e-02  -2.9179546142358410e-02  8.1804535879025891e-02  1.2354630370177305e-01  1.4441458338502297e-01  -3.8706318982886012e-02  4.6552188673480857e-03  1.2348237304426624e-01  -6.8339194091840458e-02  -2.9748302931759132e-02  -1.0515148495064879e-01  6.3726760789485554e-02  -5.5600938123101531e-02  -2.9043415538412307e-02  2.3201930515891278e-03  -7.4991753078513426e-02  2.9472027909405378e-03  2.9931130668729806e-03  3.8400576723406979e-03  -2.6962767081109968e-02  -2.4374517084862438e-02  -4.0440444152224468e-02  -3.2001678626736883e-02  1.0963821091448557e-01  3.5517752450376278e-02  1.4006183746363515e-01  -1.7021652731013734e-02  8.3111955829008502e-02  5.9067573063702659e-02  -7.9864222236001037e-02  7.7595648680794230e-02  -3.8855732830457013e-02  1.4581249213422126e-01  -2.9312405707684310e-02  -3.1210009487379130e-02  -3.6139528905143492e-02  1.3976299096346192e-01  1.1915918538430081e-01  2.4471262008828269e-03  1.3723461902134060e-01  1.4174002873676186e-01  1.6723060384050339e-03  -4.6823461731501641e-02  1.8116772976077039e-03  1.6315087784435918e-03  1.0273079335749029e-01  -7.0214702439362703e-02  -5.1007230577717201e-02  -3.5166975501900170e-02  1.8258870943855430e-03  1.3930603344895370e-01  7.7680723317369846e-02  -1.0260782630068789e-01  -4.4029144750922684e-02  1.4481306678928763e-01  -1.0872721853507723e-01  -4.6583860327642043e-02  -3.1061126654157441e-02  1.0918859143336747e-01  1.3039379032454168e-01  -1.0960049517775484e-01  9.3037828962781163e-02  8.2483441775131103e-02  1.0841903974080806e-01  1.9252552592795029e-03  1.2823278231473653e-01  1.4132939522563642e-01  1.5350748320373650e-03  1.1228672866786391e-01  1.0714260196526983e-01  1.3509284483758132e-03  9.1267953576953637e-02  7.9895551445334967e-04  1.1403187473619178e-01  9.2421442984392782e-02  -6.5850063173984702e-02  -2.4524021949759011e-02  8.7925387756885395e-02  -2.7114680590335300e-02  -2.8376504926471268e-02  1.4584767562602641e-01  1.5007817984960361e-03  -4.1055135176120772e-03  8.6140002814058148e-02  -4.0907780453873527e-02  8.6374680500341666e-02  1.2950130519055225e-01  -2.5554847922655284e-02  1.2415433869538099e-01  1.0745000375571056e-03  1.1912666319181071e-02  1.2561746221488493e-01  -5.1321283377375432e-02  -9.4554965927055715e-02  1.3051250787125468e-01  9.9106363646681607e-03  -2.6184936891472489e-02  3.1592783820065902e-03  9.9013550491934207e-04  -9.3488789266347419e-02  9.7009832718836057e-04  1.1411363420576427e-01  -1.0839239051252969e-01  2.7785180507321444e-03  -3.0987209915525404e-02  8.9935954728527230e-04  1.2653660857673010e-01  1.0517511766121798e-03  -7.2269040501289766e-02  -3.1740327154287692e-02  1.0939079608159216e-01  -3.6972405289573511e-02  8.2441179789314244e-04  1.1466620734571389e-01  -7.1434449004429051e-02  1.1136502725466926e-02  1.8636631417472696e-02  1.4567057121951313e-01  9.2095012327701514e-04  8.3048570243961055e-04  -7.5570206057984562e-02  6.9355387849774616e-02  -1.0517071996191978e-01  1.4498207564897062e-01  -8.1529887612848462e-02  -2.4926742665587222e-02  7.8186573199987117e-04  1.0614873626797695e-01  1.2369374461864970e-01  7.4690926016710929e-02  7.6202028004331929e-02  -9.5093643764755625e-02  -5.1993907086820876e-02  -2.9212295603408402e-02  -5.3576271642748023e-02  1.1927662766035539e-01  -3.4869385210473273e-02  -1.1006484668251662e-01  1.1035176814338060e-01  4.4069668180050925e-04  1.3011472357371530e-02  3.1882239380847742e-02  8.7565324056647881e-02  1.4395646327827788e-01  -5.4419468909962521e-02  1.4069259141371188e-01  5.8726778696701894e-04  4.4070339516686003e-04  4.5938793828233463e-03  8.5727402045921219e-02  9.0294094249622966e-02  1.4616034975795944e-01  7.6635829286018392e-02  1.0230041332277760e-01  1.0050703515242916e-01  3.1746244129147949e-02  1.2124076043867306e-01  -1.0937580940791959e-01  -5.0079890187849875e-03  -5.9005605656022322e-02  1.7549365713078002e-03  -9.7523486824679678e-02  -7.7620865479530121e-02  7.2395460422857924e-02  -8.5853997281948480e-02  1.4412855712119793e-01  -2.5322147366987617e-02  6.0251199215160714e-02  -1.0882646659709029e-01  -8.5761615638923636e-02  -6.3495862649712936e-02  6.7915537672290582e-02  5.4363933484763666e-04  6.2140132960140058e-04  -3.3936338097417897e-02  1.1317271407642318e-01  -1.0143067002449355e-01  -1.0991184461870514e-01  4.0503826504613941e-02  -6.9245950993414599e-03  5.5953407153259895e-04  -3.0137529315378168e-02  -4.0819748892391899e-02  -1.1001904589391076e-01  1.4579816465064604e-01  1.0091070106221943e-01  7.0919012013174118e-02  1.4252610157288348e-01  1.3938316428136202e-01  -3.2853657277856288e-02  5.9319621121891354e-02  -1.1000266886990902e-01  -1.0125574176498420e-01  1.2292205397989085e-01  -3.0037820951862318e-02  1.3759397538542303e-01  -1.0307286013308865e-01  1.2583096585521036e-01  4.3956730088873429e-02  8.2224825399543469e-02  1.4552686861591710e-01  2.9170022962735504e-04  9.3732236244364220e-02  3.1712520447984199e-04  5.8161827852448084e-02  1.6170089683401206e-02  -4.7919444528013243e-02  1.3552819989098541e-01  -1.8350651557121438e-02  1.4517660067805088e-01  -8.4471556205758136e-02  -3.7439396600962460e-02  -4.1421254972609921e-02  1.4343841672127662e-02  -8.7165307876953410e-02  7.7361159472199908e-03  2.1010176982438737e-04  9.4748077763015667e-04  -8.9489046339275832e-02  5.4885144237205502e-02  3.1779604291144346e-04  -8.4552566895481671e-02  -7.4062513429335078e-02  5.5194981550460591e-02  1.4425296480916724e-01  5.78005585676373