<?xml version="1.0"?>
<VTKFile type="UnstructuredGrid"  version="0.1"  >
<UnstructuredGrid>
<Piece  NumberOfPoints="20054" NumberOfCells="39478">
<Points>
<DataArray  type="Float64"  NumberOfComponents="3"  format="ascii">1 0 0  0.9997998037428526 0.02000880895389431 0  0.9991992951284931 0.04000960653046352 0  0.9981987145960756 0.05999438456007805 0  0.9967984627705549 0.07995514128721501 0  0.9949991003022806 0.09988388457430118 0  0.9928013476425149 0.1197726351017051 0  0.9902060847549715 0.139613429562597 0  0.987214350763483 0.1593983238513969 0  0.9838273435359444 0.1791193962445356 0  0.9800464192046954 0.198768750572253 0  0.9758730916235354 0.2183385193801655 0  0.9713090317615876 0.237820867079336 0  0.9663560670342555 0.2572079930835849 0  0.9610161805715396 0.2764921349327862 0  0.9552915104240066 0.2956655714008991 0  0.9491843487067304 0.3147206255874884 0  0.9426971406815462 0.3336496679914983 0  0.9358324837779861 0.3524451195660473 0  0.9285931265532873 0.3710994547530225 0  0.9209819675918909 0.3896052044962556 0  0.9130020543448703 0.4079549592320781 0  0.9046565819097542 0.4261413718560547 0  0.8959488917512338 0.4441571606647087 0  0.8868824703632656 0.4619951122710622 0  0.8774609478731046 0.4796480844928215 0  0.8676880965878291 0.4971090092120542 0  0.8575678294839372 0.5143708952052096 0  0.8471041986406199 0.5314268309423539 0  0.8363013936173391 0.5482699873544935 0  0.8251637397763597 0.5648936205678837 0  0.8136956965509062 0.5812910746042258 0  0.8019018556596399 0.5974557840456699 0  0.7897869392681683 0.6133812766635599 0  0.777355798098326 0.6290611760098652 0  0.7646134094859813 0.6444892039702628 0  0.7515648753881492 0.6596591832778468 0  0.7382154203402046 0.6745650399864606 0  0.7245703893640189 0.6892008059026586 0  0.7106352458278521 0.7035606209753273 0  0.6964155692588616 0.7176387356420051 0  0.6819170531091018 0.7314295131309636 0  0.6671455024759069 0.7449274317181303 0  0.6521068317775753 0.7581270869379442 0  0.6368070623852795 0.7710231937472638 0  0.6212523202121545 0.7836105886414595 0  0.6054488332605282 0.795884231721841 0  0.5894029291282759 0.8078392087135958 0  0.5731210324752972 0.8194707329334278 0  0.5566096624511305 0.8307741472061095 0  0.5398754300847343 0.8417449257291802 0  0.5229250356374803 0.8523786758850435 0  0.5057652659204196 0.8626711399997378 0  0.4884029915768944 0.8726181970476778 0  0.4708451643315825 0.8822158643016828 0  0.45309881420708 0.8914602989276292 0  0.4351710467091336 0.9003477995230937 0  0.4170690399816468 0.9088748075993677 0  0.398800041932607 0.9170379090062476 0  0.3803713673320772 0.9248338352990368 0  0.3617903948834157 0.9322594650472057 0  0.3430645642688987 0.9393118250841893 0  0.3242013731709288 0.9459880916978206 0  0.3052083742700172 0.952285591760924 0  0.2860931722207478 0.9582018038016155 0  0.2668634206069304 0.963734359012881 0  0.2475268188771628 0.9688810422010291 0  0.2280911092620296 0.9736397926726377 0  0.2085640736741707 0.9780087050596407 0  0.1889535305924618 0.9819860300822225 0  0.1692673319315541 0.9855701752492174 0  0.1495133598980264 0.9887597054957302 0  0.1296995238344084 0.9915533437577263 0  0.1098337570523395 0.9939499714833577 0  0.08992401365612977 0.9959486290808237 0  0.06997826535799723 0.9975485163025836 0  0.05000449828625179 0.9987489925657699 0  0.03001070978771124 0.9995495772086734 0  0.01000490522562346 0.9999499496831961 0  -0.01000490522562333 0.9999499496831961 0  -0.03001070978771133 0.9995495772086734 0  -0.05000449828625144 0.9987489925657699 0  -0.06997826535799688 0.9975485163025836 0  -0.08992401365612987 0.9959486290808237 0  -0.1098337570523394 0.9939499714833577 0  -0.1296995238344082 0.9915533437577263 0  -0.1495133598980262 0.9887597054957303 0  -0.1692673319315537 0.9855701752492174 0  -0.1889535305924614 0.9819860300822226 0  -0.2085640736741705 0.9780087050596407 0  -0.2280911092620295 0.9736397926726377 0  -0.2475268188771627 0.9688810422010291 0  -0.2668634206069302 0.9637343590128811 0  -0.2860931722207475 0.9582018038016156 0  -0.3052083742700173 0.9522855917609239 0  -0.3242013731709289 0.9459880916978205 0  -0.3430645642688986 0.9393118250841894 0  -0.3617903948834154 0.9322594650472058 0  -0.380371367332077 0.924833835299037 0  -0.3988000419326071 0.9170379090062476 0  -0.4170690399816465 0.9088748075993678 0  -0.4351710467091335 0.9003477995230939 0  -0.4530988142070799 0.8914602989276292 0  -0.4708451643315824 0.8822158643016829 0  -0.4884029915768945 0.8726181970476778 0  -0.5057652659204197 0.8626711399997378 0  -0.5229250356374801 0.8523786758850437 0  -0.5398754300847342 0.8417449257291804 0  -0.5566096624511303 0.8307741472061098 0  -0.5731210324752971 0.8194707329334279 0  -0.589402929128276 0.8078392087135957 0  -0.6054488332605281 0.7958842317218411 0  -0.6212523202121542 0.7836105886414597 0  -0.6368070623852793 0.7710231937472639 0  -0.652106831777575 0.7581270869379444 0  -0.6671455024759069 0.7449274317181304 0  -0.6819170531091018 0.7314295131309636 0  -0.6964155692588616 0.7176387356420052 0  -0.7106352458278521 0.7035606209753273 0  -0.7245703893640187 0.6892008059026588 0  -0.7382154203402043 0.6745650399864608 0  -0.751564875388149 0.6596591832778469 0  -0.7646134094859813 0.6444892039702628 0  -0.7773557980983258 0.6290611760098654 0  -0.7897869392681683 0.6133812766635599 0  -0.8019018556596398 0.59745578404567 0  -0.8136956965509062 0.5812910746042258 0  -0.8251637397763595 0.5648936205678839 0  -0.836301393617339 0.5482699873544935 0  -0.8471041986406197 0.5314268309423542 0  -0.8575678294839372 0.5143708952052097 0  -0.8676880965878292 0.497109009212054 0  -0.8774609478731045 0.4796480844928216 0  -0.8868824703632656 0.4619951122710621 0  -0.8959488917512338 0.4441571606647088 0  -0.904656581909754 0.426141371856055 0  -0.9130020543448703 0.4079549592320783 0  -0.920981967591891 0.3896052044962555 0  -0.9285931265532872 0.3710994547530226 0  -0.9358324837779861 0.3524451195660473 0  -0.9426971406815462 0.3336496679914984 0  -0.9491843487067303 0.3147206255874888 0  -0.9552915104240065 0.2956655714008993 0  -0.9610161805715396 0.2764921349327862 0  -0.9663560670342555 0.2572079930835851 0  -0.9713090317615876 0.2378208670793361 0  -0.9758730916235353 0.2183385193801658 0  -0.9800464192046954 0.198768750572253 0  -0.9838273435359444 0.1791193962445354 0  -0.987214350763483 0.159398323851397 0  -0.9902060847549714 0.1396134295625972 0  -0.9928013476425149 0.1197726351017052 0  -0.9949991003022804 0.09988388457430147 0  -0.9967984627705549 0.07995514128721509 0  -0.9981987145960756 0.05999438456007793 0  -0.9991992951284931 0.04000960653046362 0  -0.9997998037428526 0.02000880895389464 0  -1 1.224646799147353e-16 0  -0.9997998037428526 -0.0200088089538944 0  -0.9991992951284931 -0.04000960653046338 0  -0.9981987145960756 -0.05999438456007812 0  -0.9967984627705549 -0.07995514128721484 0  -0.9949991003022806 -0.09988388457430078 0  -0.9928013476425149 -0.1197726351017049 0  -0.9902060847549715 -0.1396134295625965 0  -0.9872143507634831 -0.1593983238513963 0  -0.9838273435359444 -0.1791193962445356 0  -0.9800464192046953 -0.1987687505722532 0  -0.9758730916235354 -0.2183385193801655 0  -0.9713090317615876 -0.2378208670793363 0  -0.9663560670342556 -0.2572079930835848 0  -0.9610161805715396 -0.276492134932786 0  -0.9552915104240066 -0.2956655714008991 0  -0.9491843487067305 -0.3147206255874881 0  -0.9426971406815464 -0.3336496679914978 0  -0.9358324837779862 -0.3524451195660471 0  -0.9285931265532875 -0.371099454753022 0  -0.9209819675918909 -0.3896052044962557 0  -0.9130020543448704 -0.407954959232078 0  -0.9046565819097541 -0.4261413718560548 0  -0.8959488917512338 -0.4441571606647086 0  -0.8868824703632655 -0.4619951122710623 0  -0.8774609478731046 -0.4796480844928214 0  -0.8676880965878293 -0.4971090092120538 0  -0.8575678294839373 -0.5143708952052095 0  -0.84710419864062 -0.5314268309423537 0  -0.8363013936173395 -0.5482699873544929 0  -0.8251637397763596 -0.5648936205678838 0  -0.8136956965509061 -0.5812910746042259 0  -0.8019018556596399 -0.5974557840456699 0  -0.7897869392681682 -0.61338127666356 0  -0.777355798098326 -0.6290611760098652 0  -0.7646134094859816 -0.6444892039702625 0  -0.7515648753881492 -0.6596591832778468 0  -0.7382154203402048 -0.6745650399864603 0  -0.7245703893640192 -0.6892008059026583 0  -0.7106352458278522 -0.7035606209753272 0  -0.6964155692588621 -0.7176387356420046 0  -0.6819170531091017 -0.7314295131309637 0  -0.667145502475907 -0.7449274317181303 0  -0.6521068317775756 -0.758127086937944 0  -0.6368070623852792 -0.7710231937472641 0  -0.6212523202121544 -0.7836105886414596 0  -0.6054488332605283 -0.795884231721841 0  -0.5894029291282762 -0.8078392087135956 0  -0.5731210324752977 -0.8194707329334274 0  -0.5566096624511304 -0.8307741472061095 0  -0.5398754300847344 -0.8417449257291802 0  -0.5229250356374798 -0.8523786758850437 0  -0.5057652659204195 -0.8626711399997379 0  -0.4884029915768943 -0.872618197047678 0  -0.4708451643315825 -0.8822158643016828 0  -0.4530988142070805 -0.8914602989276289 0  -0.4351710467091333 -0.900347799523094 0  -0.4170690399816467 -0.9088748075993677 0  -0.3988000419326073 -0.9170379090062475 0  -0.3803713673320777 -0.9248338352990366 0  -0.3617903948834162 -0.9322594650472055 0  -0.3430645642688988 -0.9393118250841893 0  -0.3242013731709283 -0.9459880916978207 0  -0.3052083742700169 -0.9522855917609241 0  -0.2860931722207477 -0.9582018038016155 0  -0.2668634206069305 -0.963734359012881 0  -0.2475268188771631 -0.968881042201029 0  -0.2280911092620301 -0.9736397926726376 0  -0.2085640736741706 -0.9780087050596407 0  -0.1889535305924619 -0.9819860300822225 0  -0.1692673319315544 -0.9855701752492173 0  -0.1495133598980269 -0.9887597054957302 0  -0.1296995238344092 -0.9915533437577262 0  -0.1098337570523396 -0.9939499714833577 0  -0.08992401365612945 -0.9959486290808237 0  -0.06997826535799691 -0.9975485163025836 0  -0.05000449828625168 -0.9987489925657699 0  -0.030010709787
[...]
<PointData  Scalars="Displacement"> 
<DataArray  type="Float64"  Name="Displacement"  format="ascii">5.9971367412285292e-07  2.5323735074738109e-07  -1.2010167382734586e-06  5.2288573841053222e-06  1.7519843517017632e-06  2.0930371107923699e-06  1.4443776956515568e-06  2.1165566394816171e-07  1.7027440858734356e-08  -6.2030802833018850e-07  -3.4259675015863130e-07  -2.5497558948744323e-07  2.4645044056648298e-07  2.3338495155100166e-07  8.7954470919473264e-07  -2.4482366279331569e-07  7.1322566068301044e-07  3.8736695424524381e-06  -5.3143480470897351e-07  -8.4311906313351051e-06  -1.3504577063009402e-05  7.4614369715457160e-06  -1.6302292699254182e-05  6.0654208067808999e-06  4.9452639770228953e-06  2.4525508059903668e-06  4.8086701045339791e-06  1.1120308766868891e-07  -2.8516023645101201e-06  5.3270914269008867e-07  2.5187525908190031e-07  8.3995632452838314e-07  1.6533822285912263e-07  -3.7816272985417253e-07  -6.9969841021227789e-07  4.6049710860085046e-07  -5.2058287790066609e-07  9.9985352608447335e-08  9.0831379667328131e-08  8.1815358437605778e-08  -9.9492822290302920e-08  5.7701488067291900e-07  -2.5778037145222511e-08  -4.8615890059436692e-07  -4.4579691668774747e-07  -9.5054802180347477e-07  -6.4527456807755003e-08  2.6566997229131409e-07  -7.0405826541935688e-07  -1.3042837178074397e-06  -6.3840688452508746e-07  -3.8842943178664976e-06  -4.2496596537790461e-06  9.7934895819638173e-06  -9.0457383212609142e-06  -8.9506323611155153e-06  -4.6088525997124739e-06  -1.0371660241207241e-07  -1.2878227556724961e-06  -9.4116881191607270e-08  2.2332136089038004e-07  -4.6829527204462554e-07  1.1660544869987180e-07  1.4489205603976835e-06  1.6821555598942555e-06  6.6067496681266428e-07  7.3482047737989242e-08  -4.0255543222208301e-07  3.8869309798329941e-08  2.5055187343684738e-08  8.3818947336123350e-09  -2.8739550575069647e-09  -5.7004789962060917e-08  8.6765999857286169e-08  1.6014396005327646e-08  2.9692037426680205e-08  -1.0586163937385393e-07  -2.1661419859563168e-08  -2.7379850629671372e-08  -2.4541307729524483e-08  -1.1670227752915903e-08  -6.7510014464055707e-08  4.2076099287097980e-07  2.3455119581460282e-07  -1.5356539462862761e-07  -3.3972135135229641e-07  3.9996469146860701e-07  4.5060110436165680e-09  3.1247955417744411e-07  1.7879693173360970e-07  9.0536520231848473e-08  1.5250049738317129e-07  1.0386991269663513e-09  -1.1471517312739250e-07  1.1804136984794449e-07  2.1263940114052713e-07  -1.7278883799590994e-07  -1.3139442117637760e-07  -6.8728053896277496e-08  -6.2949776610221804e-08  5.0376044963361290e-08  -3.8054767663841817e-08  -2.0747317071616482e-08  -5.8774709063315473e-07  2.3896024396092834e-08  -1.1863700996756213e-06  -2.8985219448580795e-07  -2.2449949040815142e-08  3.6651411601903998e-08  -1.0762501898021057e-07  -1.3348121643253265e-07  1.1247364568614046e-07  2.9492810676305659e-07  4.6924472212864669e-08  6.5557444624337502e-09  1.0456432691899794e-07  -2.0732827590005808e-08  3.6877349059709141e-08  1.7862528484376334e-07  -6.5967994555272796e-08  -1.6723904643362281e-08  -4.4139877795141671e-08  -1.9438818358743237e-08  -2.3292827801772939e-08  -1.6661512979474973e-08  -3.5974677578584962e-08  5.8440388048430727e-08  4.2870095306428806e-08  5.6126688825570446e-08  4.6768340656775648e-07  1.5128413962294737e-06  1.0115465363880592e-07  -1.0731326054900653e-06  -1.0888533982171886e-07  2.4158893895481047e-07  2.8041270409106983e-07  -4.5177410394918444e-08  -3.8532460627448271e-07  -1.2019513946135344e-07  2.5786076089033429e-07  1.4466290116174048e-07  -3.8998003425052849e-07  -1.5798664322741419e-06  -1.2025814422242250e-07  -2.1086849945105313e-07  5.1939033001948687e-07  4.5310793323538740e-06  5.6292844924760489e-07  -1.4414349422890744e-07  3.1144693964639416e-09  -1.1666559573303321e-07  1.5589309389740385e-07  1.7280575712913382e-06  2.9148502671385390e-06  1.0245069132657567e-06  -3.4797015009572449e-07  -5.7816660966406412e-07  4.6880573952671656e-07  -4.0779548569878330e-07  2.9670670163528851e-08  -2.0701631026664806e-08  0.0000000000000000e+00  -1.8109693169516898e-07  1.0299434933090567e-06  -9.0334815071377355e-07  -4.1178981452138655e-07  1.0809724832734774e-06  -8.5150913753965978e-08  2.0893856728415484e-06  -9.3933494565872490e-07  7.5211138724134137e-07  -1.5519980120596790e-07  -1.0750832823131580e-06  -5.8720561707923465e-07  -1.1669025136154120e-07  -7.2378576901865728e-07  3.2338708976681359e-07  2.4169743997302341e-07  2.0474436255955183e-07  1.0648545728816744e-07  1.1729120000993167e-06  -1.3768203540634515e-07  5.8241858224570159e-07  1.4551110148704171e-08  -1.8912622265232662e-08  -3.2499840735518665e-07  -1.7258381475092932e-07  -2.1399127126199537e-07  -9.4519444776912724e-08  1.2247267923436696e-07  -2.4062430335671881e-07  -5.1700630333479166e-07  6.3353604420128678e-08  1.3446404934623104e-07  -9.7955578886312524e-08  1.5515205888384109e-08  4.9427056512972429e-07  -3.4314278056545830e-07  -1.9012299230410115e-07  -1.1811120358347596e-07  7.5473887669501154e-07  4.6333734255725683e-08  9.4815289289420115e-08  1.0233486155726039e-06  -4.5606010955148483e-07  -1.1008749645853885e-07  -1.2106753736975103e-06  -3.4316291962860344e-07  1.6773881190319848e-07  -8.4237377851985804e-07  1.2857943437683916e-06  -2.6576733810842515e-07  -1.0874641979602965e-08  2.7223967827790251e-07  1.6919793325676793e-07  5.9951544423242632e-07  3.2197646276238863e-07  -8.3202952146697483e-08  -2.7125850970369417e-07  -9.8094219962920797e-08  -2.2780168932554555e-07  -6.5664890640507823e-08  -1.5480613883809094e-07  4.5761258286915372e-07  2.5858180090223535e-07  -1.2660673978655161e-07  2.5898544777972058e-07  -1.1949747784307745e-06  -5.2430166603384137e-06  1.4991321386043763e-06  1.1442517286347275e-06  8.7227429645587655e-07  -1.3759544154431729e-07  -9.0548997717976814e-07  -2.1478755735666539e-07  1.8546514590273325e-06  1.5094006902302872e-06  -7.8712225729287816e-07  -2.3900193872128714e-06  -2.1915169983195662e-06  -1.9917034612246709e-06  -2.6950248042165810e-07  5.1816841666949416e-07  -1.3413147578552607e-07  -1.8751126599433772e-07  -1.0694205364324904e-07  -2.2326917407253252e-07  4.9941449900511575e-08  7.0016244727482922e-10  1.3748688031852918e-07  -4.6459988404587057e-08  1.3483022437562853e-07  -4.1151946651589259e-08  4.4136031449737019e-08  -6.9293120168286106e-08  -8.3146309601612885e-08  -2.2347514974058364e-07  -5.6074181620324484e-08  -1.8741738322440905e-07  -1.6423732562459964e-07  5.2224996398650357e-08  -4.8027343038939631e-08  3.3422912916918500e-07  3.3645356339609882e-08  -5.3311921190398090e-08  -1.7698714067761397e-07  -1.8975356545567950e-08  1.2469124743137761e-07  2.9548036704684146e-07  3.8853539950942430e-07  -6.8361987180896685e-07  -4.1886318932384548e-07  8.7312990469866317e-07  3.7316308300509072e-08  2.3275814931165678e-07  -2.1038688381966123e-07  1.1455988476023382e-07  4.7476750738951036e-08  1.2388443103579949e-09  1.5436092047872809e-09  -3.2531619683890455e-08  -2.7847200956836887e-08  5.1998737991106595e-07  4.5951650196399320e-07  1.7031284870037731e-06  1.3531331760615417e-06  7.0030711081108021e-08  9.7517182963365872e-09  3.3333631973830132e-07  8.1837843305457188e-07  1.1085900385203672e-06  3.9099975046114955e-07  7.1665315983774947e-08  -2.6297993186161317e-08  4.1010609292395906e-08  -1.6380184734139115e-07  -1.1890464390254999e-06  1.1647684937655124e-07  -1.7337955167603615e-08  4.0534545667036860e-08  -1.0718327360791243e-06  1.5968128674539070e-06  -1.0293330968116242e-06  6.6442025470784472e-07  -5.2888382805444593e-07  7.9292754990185869e-07  4.1271034371894367e-06  -1.4969052310030114e-05  7.7437658385706201e-06  5.5950402141597421e-06  6.1144279370305731e-06  6.4722191351478607e-07  -1.0158590538925149e-06  -2.0989423830539222e-06  -8.0476136938993285e+24  6.5165406610699039e+18  -4.6100104978268193e+19  6.5227300697662157e+18  -1.1325302870443172e+20  -1.9877057331511271e+19  -1.2526259819711091e+17  1.0090037081187644e+15  2.9296368611319225e+14  2.0070557110323668e+13  -5.9193965814569203e+13  -5.0505381540897965e+22  1.8001825665414062e+13  -3.7739673924260688e+12  4.9555784561948328e+24  -3.5096576566035659e+23  -2.7091438921869897e+11  2.6199801367211578e+10  9.1688172255813370e+09  -1.2122039066952951e+11  -6.2366701299867874e+10  8.9885902056821136e+10  2.1327854058763802e+10  1.9361426529281244e+22  7.1178901722404015e+20  2.1263848473302939e+24  2.1395354251630997e+11  4.4877235570215636e+08  -4.6677575833550014e+09  -1.1445108521012930e+20  1.2122373513385986e+10  -1.5265116721174115e+25  -1.9370111250989555e+25  1.4626107358991666e+20  -7.6467087612700677e+08  7.9960785523760632e+07  1.3688983428324682e+08  -5.4588047070960842e+07  -5.6843043971445784e+06  -3.4036530134726835e+17  3.9624566665012250e+17  2.2259939384747328e+17  1.1147988622323718e+17  1.3990435610012584e+25  1.5148911471144789e+08  3.9831750794374101e+07  -2.9207932045661852e+07  -2.7073916033440810e+07  -9.7474385462113008e+16  7.3729544703807824e+16  4.1216345613214941e+12  -6.8650495182259379e+17  7.4945787530026688e+16  -6.2979932510573928e+19  -1.7576388872383017e+07  1.2611009829740285e+25  -1.2151047261815138e+08  -1.1034017469397087e+06  7.7251243715224117e+22  -1.6658572271286499e+07  -3.8009498289912175e+06  2.0956220306099378e+14  -4.3197186818025671e+06  -2.2734052678487368e+07  1.9620795827573929e+24  -4.3635053891260067e+24  3.3588146240222408e+23  -1.2185220264838491e+20  1.2278528532093312e+22  7.3745577154718073e+24  -5.5354533672560681e+23  -5.2977277343071224e+16  -5.6722694176947825e+14  5.4402944069984670e+15  3.7372297927860015e+15  -5.3582251065968616e+22  9.5052808768546593e+05  3.6946718850448616e+21  -2.1586270439140572e+23  5.8461783591105523e+13  -4.6064940965211380e+05  6.3004559466164975e+21  -4.7400836138537293e+05  1.8151944363615770e+05  -4.1156848021893096e+06  -2.2602985615216632e+26  -3.9288853833546489e+05  -2.4371804308258049e+05  9.7213806271811959e+05  -1.5423118851093248e+23  -1.0255578761594715e+13  6.9658024324823622e+04  6.4254633587785000e+14  6.7667804125883340e+04  -4.6795404864846445e+12  2.3771248101765650e+25  -3.1491253745800833e+05  6.4508408358835545e+05  -2.3196661465414637e+13  -7.1748363947007109e+12  -2.7010991231152775e+14  -1.4610062173762496e+13  -7.7003617630920809e+04  5.2322715112090239e+20  -2.9014755918722350e+18  1.7983260838813594e+18  2.8773610043067843e+20  9.4442135524064026e+11  6.1775784028878682e+12  -1.5079182409338761e+05  -2.4918556474626818e+20  -5.6169907716007881e+04  -2.2138855454420630e+05  -7.2266487713338928e+16  -9.2937875324621980e+15  7.6685463449064746e+12  2.3313607738668146e+05  7.7866823686614953e+04  -4.8618938664061483e+05  1.0998030906556761e+25  1.6618639057611881e+21  5.7845096677425747e+09  5.3115365181542742e+24  -7.3358259753739899e+06  -4.5420224452552319e+11  -1.6804397902761458e+12  3.0006342184362973e+04  8.3814906607468438e+04  6.8525316819604469e+10  -2.1529496029425900e+10  1.8649108263683172e+14  1.2489609649231243e+12  -2.1063787188326248e+16  2.2303511255533466e+20  6.2369033226290744e+16  8.6542032307976965e+11  -3.4238636685063312e+05  1.8581442190527391e+26  -6.5844149166938553e+22  -1.6322529665002100e+24  -1.1226701559363403e+25  -1.2796546082716356e+26  5.7129725721336145e+09  -6.9756373963181051e+20  3.3215841456830928e+16  1.1442234687653858e+10  1.2734307117608006e+10  -1.9939712259504061e+24  -2.7041048931327536e+26  2.5433085949227138e+14  4.1107920269298469e+04  5.7179110110251656e+16  -4.8552806438522686e+22  5.1171208849058857e+09  -1.3844989138245718e+11  5.2358194910364170e+06  2.3881004771822991e+04  -5.9720559193508520e+09  -2.5685092017700656e+04  1.1241620134195320e+04  -2.0924591461154232e+04  1.4462466504585600e+09  2.6110157216406477e+13  1.3570032742232436e+05  9.4963359844300747e+08  5.4608761605081242e+18  -7.8119761038129974e+10  2.9634900971548515e+05  -1.6600846338360745e+04  -4.1256870502732577e+09  -1.7219436344883814e+17  -7.1250123968313689e+24  -2.2985337733077985e+08  8.5610158784933685e+20  3.8011225971088936e+02  -7.5742039530407789e+19  -1.1137842839010918e+04  4.4433572908825220e+11  1.2539787158780355e+03  9.6711015922593382e+19  -6.7557934002007265e+09  -2.6543348110747935e+19  1.2222094103187112e+15  -3.1227393304272441e+26  9.2629857374915242e+04  -3.3612132304220364e+16  2.8738563857382081e+14  -5.7290130306886238e+19  -4.2551031793496630e+04  2.0744047100425150e+07  1.5716292226981144e+04  -8.8739730495821529e+24  -5.8546285673874036e+02  -3.8175962737449168e+04  -2.8893430197268439e+18  6.0710961252396916e+22  1.3950450137744373e+11  1.5328526790017352e+09  -7.9069217972277289e+18  7.0858356946074688e+13  6.8236510540482920e+15  7.2422337005266300e+14  1.3637009825317671e+19  -2.2082196331548988e+14  4.6465618112590440e+15  -1.2481339091760457e+08  2.7465325907651954e+09  -1.0240804787425999e+24  1.8848757859275775e+05  -4.2464423187450771e+09  1.9080755874139825e+11  -2.4368607560890933e+24  -1.4966425535516706e+25  8.2390764915391628e+03  3.3851247792541840e+03  5.3085967548629599e+09  -5.4170356199329379e+20  -2.7823955620898305e+04  -1.0151902818892855e+15  -2.0781514135946531e+14  2.8229684689128753e+06  -2.1015022193678320e+13  -1.3855648025290358e+21  2.9445428136755705e+15  6.9056576369402734e+13  6.0282108340292471e+03  -2.6286438881663521e+12  3.8906421803015619e+03  -3.5473697651066375e+14  -3.5332184710046720e+04  -1.0360782200651951e+04  1.1148406704517050e+04  2.3089770812816664e+02  5.5533997386138499e+07  2.4634531389106814e+02  -5.9039662248188846e+19  -1.6816868364164514e+16  5.8610795583163393e+08  1.1786800788531015e+07  2.9661566272408545e+25  -1.2358526111762824e+24  -4.4260553675697888e+14  1.8488831226335740e+15  7.1472199962075329e+03  -1.0746882960465652e+19  7.8532624865524067e+03  -2.0515146422422990e+03  -4.8898736936546402e+03  -3.4248416025934724e+21  1.3943161251482982e+19  -2.3236030731862736e+17  5.0345184707338176e+17  2.4235056117974715e+25  -1.2134468407665868e+25  -2.4903766638666272e+08  8.7098328104946578e+20  -1.6388199627694660e+10  1.6368190591910449e+18  3.4225879425023581e+04  6.1727149502197399e+03  -5.4009929480169572e+04  4.3536336881357646e+12  -2.4307427532411119e+08  1.0218068132919771e+17  2.7266621315241665e+19  -4.6380782937523088e+21  -3.1393808803581960e+07  -7.3750924087336054e+05  -4.7852349418361366e+04  3.7684112028823632e+16  -1.6863135278564823e+03  3.8427540717605984e+22  -4.3171171866227717e+20  -3.1350878415060062e+10  -3.5643568846326381e+07  -2.6901991188881949e+11  -1.0760222964916861e+23  8.9613830976946085e+23  3.9907608113604120e+21  6.6825571051491872e+22  -6.7405781739967576e+23  -8.3167046429722995e+24  -6.0338701164537298e+25  4.9207047464873359e+13  3.0778094774617559e+12  -1.4830638216827441e+11  -2.5102388722678116e+25  -9.8052984234957239e+03  5.9572111536092028e+07  5.8496781280749384e+21  3.4293848753851605e+25  1.5877005772972566e+20  5.5200014458836900e+14  -7.8061891277975270e+17  4.0626835597033411e+25  1.3181275996780987e+03  -5.2006007900952845e+17  2.5168102980229691e+04  2.1723034104293210e+03  1.7272338146976857e+04  -2.3714970675713075e+24  1.2150203119021789e+25  2.5598880118873361e+23  -8.3270223636466420e+24  2.7146349507771258e+13  3.6387884768148410e+15  1.5659023232168503e+11  4.6908350780904240e+16  1.9091221594202850e+14  -9.7194432857726828e+13  -4.9063653113045391e+18  1.4214932095991890e+15  7.6281095711144949e+23  -4.1063481101044975e+10  2.5975661449005082e+25  1.0558482936797594e+24  -3.7073243131839688e+16  2.5091826771529953e+11  8.5529044752515293e+12  -9.2091141535485428e+02  -3.3148423398375309e+08  -3.7928330870852341e+10  4.4921858800211436e+02  -2.5312905135045931e+22  -8.3470755516245947e+02  -4.0128025758400681e+03  1.2120264764696576e+07  -5.0452537498308801e+21  -1.1690053718569287e+22  -5.4470937396093180e+24  -8.0850788928385618e+03  -4.4192764652996712e+10  6.2806678497088281e+12  4.6682940487945757e+19  -4.0389983956837262e+21  8.7143807580963074e+10  2.0792658388570931e+19  2.1594427411786428e+23  -1.9584122399915006e+26  -2.1219424001440308e+12  -1.7607683217545126e+07  4.3896416941241688e+19  8.7626843743902016e+06  -2.2166061440014471e+06  -1.1518852104637670e+13  -1.9125481247034036e+03  -5.8813697141404688e+08  8.3995839542381315e+09  -5.3886152300349545e+02  1.1377173696778436e+13  3.2087890140097164e+13  -2.0433843850330923e+03  -7.9885681327971648e+06  -1.0820792747195721e+03  7.8110160382173285e+07  -2.3034161303720623e+07  1.3688276366472445e+17  -2.8309846305394244e+25  -8.5850105244173348e+07  2.3375049392823683e+24  -5.6752267101840494e+24  1.2122914847599684e+11  1.6005929059136513e+03  1.5479686076265688e+16  2.9628187571461406e+06  -2.3158654484888193e+24  -4.2568350707538361e+06  3.2097757072666709e+12  -2.5257946745590415e+25  -1.5370159995171692e+09  1.6470339163807519e+03  1.4769503822567448e+05  -1.9331591330311975e+09  -4.1655061095142170e+22  2.3733283570833728e+21  6.5227351945326074e+11  8.9885738650964904e+03  -4.1686218079206782e+25  2.2391471093157578e+15  2.3979845712762040e+02  3.1342485865686036e+18  1.9756566458808038e+01  4.8145482164596856e+07  1.8137243932628171e+19  8.6961375720615342e+02  1.6076305993729192e+25  -6.5077144432669357e+01  1.2470464499161563e+09  -4.5815096958963841e+02  2.3088790191146591e+21  -4.3207694341100648e+16  -3.4817406457977961e+13  9.5230099059908576e+16  -1.3557024235183899e+03  1.7610777445067286e+07  1.4571896742815474e+20  4.4946952594739487e+04  -5.1108885549212380e+15  4.7759830349228989e+10  7.6736753992215131e+02  8.2839714904056598e+02  -1.6754960473652381e+17  -9.0650090404506214e+05  -1.9841363155980276e+19  -1.1822887786355147e+11  7.5780914687799968e+16  -4.4273640374925568e+16  3.6606937582821917e+02  1.4906378381471042e+07  -1.0826279115768757e+09  -3.5199831617994950e+05  -8.4793758271732572e+06  -3.3537039154455747e+21  3.4063107023423278e+22  -1.2516145475128135e+26  -1.4788794651873869e+22  1.0508749810564727e+08  -4.5019323161957426e+24  3.8609460432626922e+20  4.2355269427550770e+07  1.7064215894876652e+03  -2.0815512801490680e+04  -3.5692473214837960e+15  -2.0111335512910910e+13  1.1156027950868002e+10  -4.1994940212032515e+22  1.0298346971617493e+12  7.8961832455054662e+02  -1.1635782415215103e+02  2.4350045233148980e+04  1.3731204673523205e+13  -4.8307455007730551e+07  -8.7963531122816544e+10  5.4394754283205308e+06  2.0200254998360115e+08  3.2358796904173583e+07  -4.6609470764527188e+12  -1.5573875171422935e+08  -6.1813453511130505e+19  3.6581238445814480e+16  -8.0612766236713344e+17  -3.2528816992953015e+15  1.8794150020709613e+17  3.6362343250857070e+21  9.4582762644531876e+06  -7.0099296940467434e+20  -6.9670832103640556e+09  1.5326125724198663e+26  2.7611931828143775e+14  -2.6729216865895969e+19  7.5883458864373811e+17  8.6859482399444155e+22  -3.3835916041081178e+05  -9.9278663665088902e+02  6.0886330378613252e+02  -5.5860073721016543e+24  -9.7859726923241758e+12  2.4064521488384840e+18  1.0936381286302612e+18  1.0713427861281964e+06  1.1274883985013180e+16  -1.0408060025118462e+02  8.4789386420349745e+25  4.1840793879922858e+23  -1.8408556804432557e+20  -7.4873372708709564e+10  -1.8503766333420966e+07  1.7337692502685711e+06  3.4299755270845013e+11  6.0430125950005872e+11  -1.9938411752118244e+16  -9.7712127984167810e+05  -4.5897306339714089e+19  8.7499451621585715e+17  -1.1039949240517249e+09  2.0214493474140084e+25  -1.0603907330051958e+12  -8.1188037620480676e+18  9.1314643328164673e+10  3.8396591174374040e+15  -3.9378393434727875e+13  -5.9227097420022430e+10  6.9301830803605139e+02  -2.1321631717085455e+07  3.4654997152895180e+02  7.3067563984188624e+05  5.3416077071235522e+04  -1.4251114226240859e+23  -1.2964159892732770e+09  9.3019648798871100e+15  -2.7754255617063225e+10  -3.0282868545068456e+21  5.6831661170869229e+17  -3.9717644101061050e+23  -4.9381388983370416e+04  -1.2230026376320437e+21  -9.2792798659190667e+03  1.1658703311913425e+02  -2.43913928