<?xml version="1.0"?>
<VTKFile type="UnstructuredGrid"  version="0.1"  >
<UnstructuredGrid>
<Piece  NumberOfPoints="20054" NumberOfCells="39478">
<Points>
<DataArray  type="Float64"  NumberOfComponents="3"  format="ascii">1 0 0  0.9997998037428526 0.02000880895389431 0  0.9991992951284931 0.04000960653046352 0  0.9981987145960756 0.05999438456007805 0  0.9967984627705549 0.07995514128721501 0  0.9949991003022806 0.09988388457430118 0  0.9928013476425149 0.1197726351017051 0  0.9902060847549715 0.139613429562597 0  0.987214350763483 0.1593983238513969 0  0.9838273435359444 0.1791193962445356 0  0.9800464192046954 0.198768750572253 0  0.9758730916235354 0.2183385193801655 0  0.9713090317615876 0.237820867079336 0  0.9663560670342555 0.2572079930835849 0  0.9610161805715396 0.2764921349327862 0  0.9552915104240066 0.2956655714008991 0  0.9491843487067304 0.3147206255874884 0  0.9426971406815462 0.3336496679914983 0  0.9358324837779861 0.3524451195660473 0  0.9285931265532873 0.3710994547530225 0  0.9209819675918909 0.3896052044962556 0  0.9130020543448703 0.4079549592320781 0  0.9046565819097542 0.4261413718560547 0  0.8959488917512338 0.4441571606647087 0  0.8868824703632656 0.4619951122710622 0  0.8774609478731046 0.4796480844928215 0  0.8676880965878291 0.4971090092120542 0  0.8575678294839372 0.5143708952052096 0  0.8471041986406199 0.5314268309423539 0  0.8363013936173391 0.5482699873544935 0  0.8251637397763597 0.5648936205678837 0  0.8136956965509062 0.5812910746042258 0  0.8019018556596399 0.5974557840456699 0  0.7897869392681683 0.6133812766635599 0  0.777355798098326 0.6290611760098652 0  0.7646134094859813 0.6444892039702628 0  0.7515648753881492 0.6596591832778468 0  0.7382154203402046 0.6745650399864606 0  0.7245703893640189 0.6892008059026586 0  0.7106352458278521 0.7035606209753273 0  0.6964155692588616 0.7176387356420051 0  0.6819170531091018 0.7314295131309636 0  0.6671455024759069 0.7449274317181303 0  0.6521068317775753 0.7581270869379442 0  0.6368070623852795 0.7710231937472638 0  0.6212523202121545 0.7836105886414595 0  0.6054488332605282 0.795884231721841 0  0.5894029291282759 0.8078392087135958 0  0.5731210324752972 0.8194707329334278 0  0.5566096624511305 0.8307741472061095 0  0.5398754300847343 0.8417449257291802 0  0.5229250356374803 0.8523786758850435 0  0.5057652659204196 0.8626711399997378 0  0.4884029915768944 0.8726181970476778 0  0.4708451643315825 0.8822158643016828 0  0.45309881420708 0.8914602989276292 0  0.4351710467091336 0.9003477995230937 0  0.4170690399816468 0.9088748075993677 0  0.398800041932607 0.9170379090062476 0  0.3803713673320772 0.9248338352990368 0  0.3617903948834157 0.9322594650472057 0  0.3430645642688987 0.9393118250841893 0  0.3242013731709288 0.9459880916978206 0  0.3052083742700172 0.952285591760924 0  0.2860931722207478 0.9582018038016155 0  0.2668634206069304 0.963734359012881 0  0.2475268188771628 0.9688810422010291 0  0.2280911092620296 0.9736397926726377 0  0.2085640736741707 0.9780087050596407 0  0.1889535305924618 0.9819860300822225 0  0.1692673319315541 0.9855701752492174 0  0.1495133598980264 0.9887597054957302 0  0.1296995238344084 0.9915533437577263 0  0.1098337570523395 0.9939499714833577 0  0.08992401365612977 0.9959486290808237 0  0.06997826535799723 0.9975485163025836 0  0.05000449828625179 0.9987489925657699 0  0.03001070978771124 0.9995495772086734 0  0.01000490522562346 0.9999499496831961 0  -0.01000490522562333 0.9999499496831961 0  -0.03001070978771133 0.9995495772086734 0  -0.05000449828625144 0.9987489925657699 0  -0.06997826535799688 0.9975485163025836 0  -0.08992401365612987 0.9959486290808237 0  -0.1098337570523394 0.9939499714833577 0  -0.1296995238344082 0.9915533437577263 0  -0.1495133598980262 0.9887597054957303 0  -0.1692673319315537 0.9855701752492174 0  -0.1889535305924614 0.9819860300822226 0  -0.2085640736741705 0.9780087050596407 0  -0.2280911092620295 0.9736397926726377 0  -0.2475268188771627 0.9688810422010291 0  -0.2668634206069302 0.9637343590128811 0  -0.2860931722207475 0.9582018038016156 0  -0.3052083742700173 0.9522855917609239 0  -0.3242013731709289 0.9459880916978205 0  -0.3430645642688986 0.9393118250841894 0  -0.3617903948834154 0.9322594650472058 0  -0.380371367332077 0.924833835299037 0  -0.3988000419326071 0.9170379090062476 0  -0.4170690399816465 0.9088748075993678 0  -0.4351710467091335 0.9003477995230939 0  -0.4530988142070799 0.8914602989276292 0  -0.4708451643315824 0.8822158643016829 0  -0.4884029915768945 0.8726181970476778 0  -0.5057652659204197 0.8626711399997378 0  -0.5229250356374801 0.8523786758850437 0  -0.5398754300847342 0.8417449257291804 0  -0.5566096624511303 0.8307741472061098 0  -0.5731210324752971 0.8194707329334279 0  -0.589402929128276 0.8078392087135957 0  -0.6054488332605281 0.7958842317218411 0  -0.6212523202121542 0.7836105886414597 0  -0.6368070623852793 0.7710231937472639 0  -0.652106831777575 0.7581270869379444 0  -0.6671455024759069 0.7449274317181304 0  -0.6819170531091018 0.7314295131309636 0  -0.6964155692588616 0.7176387356420052 0  -0.7106352458278521 0.7035606209753273 0  -0.7245703893640187 0.6892008059026588 0  -0.7382154203402043 0.6745650399864608 0  -0.751564875388149 0.6596591832778469 0  -0.7646134094859813 0.6444892039702628 0  -0.7773557980983258 0.6290611760098654 0  -0.7897869392681683 0.6133812766635599 0  -0.8019018556596398 0.59745578404567 0  -0.8136956965509062 0.5812910746042258 0  -0.8251637397763595 0.5648936205678839 0  -0.836301393617339 0.5482699873544935 0  -0.8471041986406197 0.5314268309423542 0  -0.8575678294839372 0.5143708952052097 0  -0.8676880965878292 0.497109009212054 0  -0.8774609478731045 0.4796480844928216 0  -0.8868824703632656 0.4619951122710621 0  -0.8959488917512338 0.4441571606647088 0  -0.904656581909754 0.426141371856055 0  -0.9130020543448703 0.4079549592320783 0  -0.920981967591891 0.3896052044962555 0  -0.9285931265532872 0.3710994547530226 0  -0.9358324837779861 0.3524451195660473 0  -0.9426971406815462 0.3336496679914984 0  -0.9491843487067303 0.3147206255874888 0  -0.9552915104240065 0.2956655714008993 0  -0.9610161805715396 0.2764921349327862 0  -0.9663560670342555 0.2572079930835851 0  -0.9713090317615876 0.2378208670793361 0  -0.9758730916235353 0.2183385193801658 0  -0.9800464192046954 0.198768750572253 0  -0.9838273435359444 0.1791193962445354 0  -0.987214350763483 0.159398323851397 0  -0.9902060847549714 0.1396134295625972 0  -0.9928013476425149 0.1197726351017052 0  -0.9949991003022804 0.09988388457430147 0  -0.9967984627705549 0.07995514128721509 0  -0.9981987145960756 0.05999438456007793 0  -0.9991992951284931 0.04000960653046362 0  -0.9997998037428526 0.02000880895389464 0  -1 1.224646799147353e-16 0  -0.9997998037428526 -0.0200088089538944 0  -0.9991992951284931 -0.04000960653046338 0  -0.9981987145960756 -0.05999438456007812 0  -0.9967984627705549 -0.07995514128721484 0  -0.9949991003022806 -0.09988388457430078 0  -0.9928013476425149 -0.1197726351017049 0  -0.9902060847549715 -0.1396134295625965 0  -0.9872143507634831 -0.1593983238513963 0  -0.9838273435359444 -0.1791193962445356 0  -0.9800464192046953 -0.1987687505722532 0  -0.9758730916235354 -0.2183385193801655 0  -0.9713090317615876 -0.2378208670793363 0  -0.9663560670342556 -0.2572079930835848 0  -0.9610161805715396 -0.276492134932786 0  -0.9552915104240066 -0.2956655714008991 0  -0.9491843487067305 -0.3147206255874881 0  -0.9426971406815464 -0.3336496679914978 0  -0.9358324837779862 -0.3524451195660471 0  -0.9285931265532875 -0.371099454753022 0  -0.9209819675918909 -0.3896052044962557 0  -0.9130020543448704 -0.407954959232078 0  -0.9046565819097541 -0.4261413718560548 0  -0.8959488917512338 -0.4441571606647086 0  -0.8868824703632655 -0.4619951122710623 0  -0.8774609478731046 -0.4796480844928214 0  -0.8676880965878293 -0.4971090092120538 0  -0.8575678294839373 -0.5143708952052095 0  -0.84710419864062 -0.5314268309423537 0  -0.8363013936173395 -0.5482699873544929 0  -0.8251637397763596 -0.5648936205678838 0  -0.8136956965509061 -0.5812910746042259 0  -0.8019018556596399 -0.5974557840456699 0  -0.7897869392681682 -0.61338127666356 0  -0.777355798098326 -0.6290611760098652 0  -0.7646134094859816 -0.6444892039702625 0  -0.7515648753881492 -0.6596591832778468 0  -0.7382154203402048 -0.6745650399864603 0  -0.7245703893640192 -0.6892008059026583 0  -0.7106352458278522 -0.7035606209753272 0  -0.6964155692588621 -0.7176387356420046 0  -0.6819170531091017 -0.7314295131309637 0  -0.667145502475907 -0.7449274317181303 0  -0.6521068317775756 -0.758127086937944 0  -0.6368070623852792 -0.7710231937472641 0  -0.6212523202121544 -0.7836105886414596 0  -0.6054488332605283 -0.795884231721841 0  -0.5894029291282762 -0.8078392087135956 0  -0.5731210324752977 -0.8194707329334274 0  -0.5566096624511304 -0.8307741472061095 0  -0.5398754300847344 -0.8417449257291802 0  -0.5229250356374798 -0.8523786758850437 0  -0.5057652659204195 -0.8626711399997379 0  -0.4884029915768943 -0.872618197047678 0  -0.4708451643315825 -0.8822158643016828 0  -0.4530988142070805 -0.8914602989276289 0  -0.4351710467091333 -0.900347799523094 0  -0.4170690399816467 -0.9088748075993677 0  -0.3988000419326073 -0.9170379090062475 0  -0.3803713673320777 -0.9248338352990366 0  -0.3617903948834162 -0.9322594650472055 0  -0.3430645642688988 -0.9393118250841893 0  -0.3242013731709283 -0.9459880916978207 0  -0.3052083742700169 -0.9522855917609241 0  -0.2860931722207477 -0.9582018038016155 0  -0.2668634206069305 -0.963734359012881 0  -0.2475268188771631 -0.968881042201029 0  -0.2280911092620301 -0.9736397926726376 0  -0.2085640736741706 -0.9780087050596407 0  -0.1889535305924619 -0.9819860300822225 0  -0.1692673319315544 -0.9855701752492173 0  -0.1495133598980269 -0.9887597054957302 0  -0.1296995238344092 -0.9915533437577262 0  -0.1098337570523396 -0.9939499714833577 0  -0.08992401365612945 -0.9959486290808237 0  -0.06997826535799691 -0.9975485163025836 0  -0.05000449828625168 -0.9987489925657699 0  -0.030010709787
[...]
<PointData  Scalars="Displacement"> 
<DataArray  type="Float64"  Name="Displacement"  format="ascii">0.0000000000000000e+00  0.0000000000000000e+00  0.0000000000000000e+00  0.0000000000000000e+00  0.0000000000000000e+00  0.0000000000000000e+00  0.0000000000000000e+00  0.0000000000000000e+00  0.0000000000000000e+00  0.0000000000000000e+00  0.0000000000000000e+00  0.0000000000000000e+00  0.0000000000000000e+00  0.0000000000000000e+00  0.0000000000000000e+00  0.0000000000000000e+00  0.0000000000000000e+00  0.0000000000000000e+00  0.0000000000000000e+00  0.0000000000000000e+00  0.0000000000000000e+00  0.0000000000000000e+00  0.0000000000000000e+00  0.0000000000000000e+00  0.0000000000000000e+00  0.0000000000000000e+00  0.0000000000000000e+00  0.0000000000000000e+00  0.0000000000000000e+00  0.0000000000000000e+00  0.0000000000000000e+00  0.0000000000000000e+00  0.0000000000000000e+00  0.0000000000000000e+00  0.0000000000000000e+00  0.0000000000000000e+00  0.0000000000000000e+00  0.0000000000000000e+00  0.0000000000000000e+00  0.0000000000000000e+00  0.0000000000000000e+00  0.0000000000000000e+00  0.0000000000000000e+00  0.0000000000000000e+00  0.0000000000000000e+00  0.0000000000000000e+00  0.0000000000000000e+00  0.0000000000000000e+00  0.0000000000000000e+00  0.0000000000000000e+00  0.0000000000000000e+00  0.0000000000000000e+00  0.0000000000000000e+00  0.0000000000000000e+00  0.0000000000000000e+00  0.0000000000000000e+00  0.0000000000000000e+00  0.0000000000000000e+00  0.0000000000000000e+00  0.0000000000000000e+00  0.0000000000000000e+00  0.0000000000000000e+00  0.0000000000000000e+00  0.0000000000000000e+00  0.0000000000000000e+00  0.0000000000000000e+00  0.0000000000000000e+00  0.0000000000000000e+00  0.0000000000000000e+00  0.0000000000000000e+00  0.0000000000000000e+00  0.0000000000000000e+00  0.0000000000000000e+00  0.0000000000000000e+00  0.0000000000000000e+00  0.0000000000000000e+00  0.0000000000000000e+00  0.0000000000000000e+00  0.0000000000000000e+00  0.0000000000000000e+00  0.0000000000000000e+00  0.0000000000000000e+00  0.0000000000000000e+00  0.0000000000000000e+00  0.0000000000000000e+00  0.0000000000000000e+00  0.0000000000000000e+00  0.0000000000000000e+00  0.0000000000000000e+00  0.0000000000000000e+00  0.0000000000000000e+00  0.0000000000000000e+00  0.0000000000000000e+00  0.0000000000000000e+00  0.0000000000000000e+00  0.0000000000000000e+00  0.0000000000000000e+00  0.0000000000000000e+00  0.0000000000000000e+00  0.0000000000000000e+00  0.0000000000000000e+00  0.0000000000000000e+00  0.0000000000000000e+00  0.0000000000000000e+00  0.0000000000000000e+00  0.0000000000000000e+00  0.0000000000000000e+00  0.0000000000000000e+00  0.0000000000000000e+00  0.0000000000000000e+00  0.0000000000000000e+00  0.0000000000000000e+00  0.0000000000000000e+00  0.0000000000000000e+00  0.0000000000000000e+00  0.0000000000000000e+00  0.0000000000000000e+00  0.0000000000000000e+00  0.0000000000000000e+00  0.0000000000000000e+00  0.0000000000000000e+00  0.0000000000000000e+00  0.0000000000000000e+00  0.0000000000000000e+00  0.0000000000000000e+00  0.0000000000000000e+00  0.0000000000000000e+00  0.0000000000000000e+00  0.0000000000000000e+00  0.0000000000000000e+00  0.0000000000000000e+00  0.0000000000000000e+00  0.0000000000000000e+00  0.0000000000000000e+00  0.0000000000000000e+00  0.0000000000000000e+00  0.0000000000000000e+00  0.0000000000000000e+00  0.0000000000000000e+00  0.0000000000000000e+00  0.0000000000000000e+00  0.0000000000000000e+00  0.0000000000000000e+00  0.0000000000000000e+00  0.0000000000000000e+00  0.0000000000000000e+00  0.0000000000000000e+00  0.0000000000000000e+00  0.0000000000000000e+00  0.0000000000000000e+00  0.0000000000000000e+00  0.0000000000000000e+00  0.0000000000000000e+00  0.0000000000000000e+00  0.0000000000000000e+00  0.0000000000000000e+00  0.0000000000000000e+00  0.0000000000000000e+00  0.0000000000000000e+00  0.0000000000000000e+00  0.0000000000000000e+00  0.0000000000000000e+00  0.0000000000000000e+00  0.0000000000000000e+00  0.0000000000000000e+00  0.0000000000000000e+00  0.0000000000000000e+00  0.0000000000000000e+00  0.0000000000000000e+00  0.0000000000000000e+00  0.0000000000000000e+00  0.0000000000000000e+00  0.0000000000000000e+00  0.0000000000000000e+00  0.0000000000000000e+00  0.0000000000000000e+00  0.0000000000000000e+00  0.0000000000000000e+00  0.0000000000000000e+00  0.0000000000000000e+00  0.0000000000000000e+00  0.0000000000000000e+00  0.0000000000000000e+00  0.0000000000000000e+00  0.0000000000000000e+00  0.0000000000000000e+00  0.0000000000000000e+00  0.0000000000000000e+00  0.0000000000000000e+00  0.0000000000000000e+00  0.0000000000000000e+00  0.0000000000000000e+00  0.0000000000000000e+00  0.0000000000000000e+00  0.0000000000000000e+00  0.0000000000000000e+00  0.0000000000000000e+00  0.0000000000000000e+00  0.0000000000000000e+00  0.0000000000000000e+00  0.0000000000000000e+00  0.0000000000000000e+00  0.0000000000000000e+00  0.0000000000000000e+00  0.0000000000000000e+00  0.0000000000000000e+00  0.0000000000000000e+00  0.0000000000000000e+00  0.0000000000000000e+00  0.0000000000000000e+00  0.0000000000000000e+00  0.0000000000000000e+00  0.0000000000000000e+00  0.0000000000000000e+00  0.0000000000000000e+00  0.0000000000000000e+00  0.0000000000000000e+00  0.0000000000000000e+00  0.0000000000000000e+00  0.0000000000000000e+00  0.0000000000000000e+00  0.0000000000000000e+00  0.0000000000000000e+00  0.0000000000000000e+00  0.0000000000000000e+00  0.0000000000000000e+00  0.0000000000000000e+00  0.0000000000000000e+00  0.0000000000000000e+00  0.0000000000000000e+00  0.0000000000000000e+00  0.0000000000000000e+00  0.0000000000000000e+00  0.0000000000000000e+00  0.0000000000000000e+00  0.0000000000000000e+00  0.0000000000000000e+00  0.0000000000000000e+00  0.0000000000000000e+00  0.0000000000000000e+00  0.0000000000000000e+00  0.0000000000000000e+00  0.0000000000000000e+00  0.0000000000000000e+00  0.0000000000000000e+00  0.0000000000000000e+00  0.0000000000000000e+00  0.0000000000000000e+00  0.0000000000000000e+00  0.0000000000000000e+00  0.0000000000000000e+00  0.0000000000000000e+00  0.0000000000000000e+00  0.0000000000000000e+00  0.0000000000000000e+00  0.0000000000000000e+00  0.0000000000000000e+00  0.0000000000000000e+00  0.0000000000000000e+00  0.0000000000000000e+00  0.0000000000000000e+00  0.0000000000000000e+00  0.0000000000000000e+00  0.0000000000000000e+00  0.0000000000000000e+00  0.0000000000000000e+00  0.0000000000000000e+00  0.0000000000000000e+00  0.0000000000000000e+00  0.0000000000000000e+00  0.0000000000000000e+00  0.0000000000000000e+00  0.0000000000000000e+00  0.0000000000000000e+00  0.0000000000000000e+00  0.0000000000000000e+00  0.0000000000000000e+00  0.0000000000000000e+00  0.0000000000000000e+00  0.0000000000000000e+00  0.0000000000000000e+00  0.0000000000000000e+00  0.0000000000000000e+00  0.0000000000000000e+00  0.0000000000000000e+00  0.0000000000000000e+00  0.0000000000000000e+00  0.0000000000000000e+00  0.0000000000000000e+00  0.0000000000000000e+00  0.0000000000000000e+00  0.0000000000000000e+00  0.0000000000000000e+00  0.0000000000000000e+00  0.0000000000000000e+00  0.0000000000000000e+00  0.0000000000000000e+00  0.0000000000000000e+00  0.0000000000000000e+00  0.0000000000000000e+00  0.0000000000000000e+00  0.0000000000000000e+00  0.0000000000000000e+00  0.0000000000000000e+00  0.0000000000000000e+00  0.0000000000000000e+00  0.0000000000000000e+00  0.0000000000000000e+00  0.0000000000000000e+00  0.0000000000000000e+00  0.0000000000000000e+00  0.0000000000000000e+00  0.0000000000000000e+00  0.0000000000000000e+00  5.4925111009524186e-02  -7.5845776872972680e-05  -6.7005532448035870e-05  -7.0783614151198582e-05  -7.3237749444590632e-05  -6.7592290020225161e-05  -1.4076147995785711e-02  -2.4908904143019123e-02  -2.6491461317410144e-02  -2.8963191881254461e-02  -2.8971829015064943e-02  3.9653312195732933e-02  -3.1138776443087629e-02  -3.1140317882042211e-02  4.1475398771700742e-02  4.2785948444164765e-02  -3.1818485094513682e-02  -3.1827164074936486e-02  -3.1815409394989516e-02  -3.1813998866729976e-02  -3.1722602694784857e-02  -3.1720439922444901e-02  -3.1762608885748791e-02  2.1686697131669812e-02  2.1687581375376099e-02  4.7373666419834363e-02  -3.1788336333381711e-02  -3.0649947641333778e-02  -3.1017750768930399e-02  5.0634529178128765e-03  -3.0935542628556943e-02  4.4297728155760052e-02  5.0510566469997992e-02  2.0131691126745433e-03  -3.0126217429182950e-02  -2.8641790855431382e-02  -2.8345185144186404e-02  -2.8178532916657738e-02  -2.8138306402703164e-02  -1.0810073751601612e-02  -1.2121208885367669e-02  -1.3563491343770976e-02  -1.4120636211385765e-02  5.2040892752058400e-02  -2.7574339586303603e-02  -2.7212733975520306e-02  -2.6803420166297876e-02  -2.6797167588288155e-02  -1.8404169160658596e-02  -1.7276375107062817e-02  -3.0035290498098371e-02  -1.0374399610042329e-02  -1.5302209315344905e-02  6.9942478242557907e-03  -2.5171766822462738e-02  5.2593797935920651e-02  -2.7045971438157068e-02  -2.5196789834210177e-02  3.5806364770524193e-02  -2.4781991338456634e-02  -2.4979693987837743e-02  -2.8635097367971950e-02  -2.4598173619772772e-02  -2.5317565281979783e-02  3.5777101790920869e-02  4.7658816993749152e-02  2.3401067599500454e-02  6.9349983147219485e-03  2.4335578334093697e-02  5.3470552468823228e-02  3.6077786976227884e-02  -1.7950223653621658e-02  -2.4111834877486304e-02  -2.2546159734973346e-02  -2.2448849312640875e-02  3.0411664383591091e-02  -2.4316005371930547e-02  1.7627453570357759e-02  3.0803403162563244e-02  -2.7866022088456462e-02  -2.3378728505282713e-02  2.0630337226493135e-02  -2.2942013613398475e-02  -2.3169636062143405e-02  -2.2489879957838688e-02  5.3801100715856857e-02  -2.2807379414429205e-02  -2.2183104198155335e-02  -2.2193449566621705e-02  2.4903193285735148e-02  -2.9803884250982814e-02  -2.1725123854163243e-02  -2.3808744198441825e-02  -2.1558023210556537e-02  -2.9744735147559574e-02  5.2347302500958148e-02  -2.2847044601491423e-02  -2.1217479601219932e-02  -3.0326447742748428e-02  -3.1277039938045051e-02  -2.7150591847530159e-02  -3.0317842721074944e-02  -2.1171395775314912e-02  1.0157784528997821e-02  -8.3845739523360930e-03  -8.3916212575334305e-03  1.3431933487716676e-02  -3.1270161589909411e-02  -3.0713115225076065e-02  -1.9691163870825385e-02  1.5157952373205070e-02  -1.9548424582676187e-02  -2.0187358585865046e-02  -1.9073132894363257e-02  -2.0630263237520499e-02  -3.1438953089901335e-02  -1.9072762325462237e-02  -2.0810293029966741e-02  -2.0513684236877213e-02  5.3490631629887993e-02  1.1228167663319836e-02  -3.1398218477525129e-02  4.2323566555548926e-02  -2.4974410737707540e-02  -3.1784699486701089e-02  -2.9063274858982628e-02  -2.0423362842740597e-02  -1.8613989772869530e-02  -3.1836452748780678e-02  -3.1823422775750752e-02  -2.8820239638122625e-02  -3.1775453257172272e-02  -2.4153891182276177e-02  6.3179111591151185e-03  -1.8291090874231013e-02  -3.1262264296115075e-02  -1.9871558471458859e-02  4.3642739157497522e-02  2.5515939110779540e-02  3.7515950018663341e-02  5.4424951105331541e-02  4.3738513506746124e-02  -3.0745278921945549e-02  1.5287865305514084e-02  -1.9284491619353476e-02  -3.0810597283564379e-02  -3.1063271015129349e-02  4.0479283004495777e-02  5.1925213010387390e-02  -2.6085569865976131e-02  -1.7050553928626474e-02  -1.9950314255247893e-02  2.4879220653829536e-02  -3.1523080877349209e-02  -3.1522076249324793e-02  -2.5317674989596979e-02  -1.6421960804576759e-02  -3.1120981237127254e-02  -1.7406552362984738e-02  -1.6565711253244329e-02  -1.6638360575681761e-02  -3.0914568644535449e-02  -2.7831392888691020e-02  -1.7501756618694908e-02  -2.9152894800001116e-02  -2.3837139756558959e-03  -3.1548562311011719e-02  -2.0877752330286093e-02  -1.6337333015515241e-02  -3.0802924189205005e-02  -1.6972573444190380e-02  5.4532606522432185e-02  -3.0879630004534774e-02  2.2995883123005122e-02  -1.5854535667575730e-02  8.1052916085186180e-03  -1.5601949302499859e-02  -3.1764466702422674e-02  -1.5881097931374693e-02  3.0310809778399616e-03  -3.0409120606402013e-02  -6.2330678220688359e-03  -1.8274271982779918e-02  4.8384481394023057e-02  -1.7169362572090393e-02  -1.0254155884800640e-02  -2.6421846829066561e-02  2.4097576431237216e-03  -1.6094812253212860e-02  -2.7830599665266045e-02  -1.6386295396029711e-02  5.1981689974515181e-02  -1.5221414472684807e-02  -1.6061184722665007e-02  -6.5736631305310204e-03  3.3909252154081908e-02  -3.1663998700596566e-02  -3.0064523766394707e-02  -2.6976366590694798e-03  -2.7922290159114717e-02  -2.0378584923995718e-02  -1.6444949478502703e-02  7.4806460598051262e-04  -2.6896443246836061e-02  -2.0489948096404517e-02  -3.0018840370314770e-02  -2.9891495328508998e-02  4.6188915107310193e-02  -2.2876808518963416e-02  -2.9861639655117334e-02  -3.1815985697632831e-02  5.1358332232819437e-02  5.4590564271799945e-02  -1.5221380783763637e-02  -1.5000609763290833e-02  -3.0967445332311126e-02  4.4805971647882397e-03  -1.5818583865359042e-02  -2.6178713241072255e-02  -2.8616498949106204e-02  -2.5758114449334190e-02  -3.0105145886370730e-02  1.7483851003619388e-02  -2.4725837379573002e-02  -2.8434872884745093e-02  -1.5924004349595532e-02  -3.1278169154012728e-02  -1.4137510349423676e-02  -2.8550196220291948e-02  -1.4849859797092930e-02  -1.8767821515302714e-02  -1.6084084671757017e-02  -1.4126156221550735e-02  -2.7142904917406830e-02  -1.4630602117808172e-02  8.3448034654423891e-03  -1.9876192002685100e-02  -2.8612458009242017e-02  -2.8876376913925295e-02  4.4850343641613492e-02  3.7927278580412338e-02  -2.6627706610501334e-02  -2.3314666789510417e-02  -1.8929955436051318e-02  -1.0995528372088718e-03  -1.4129225965350076e-02  -1.4130843708577347e-02  -1.4037391318729201e-02  2.6177896481718227e-02  3.7945548333683451e-03  -1.2402325285737936e-02  -1.1107769943506395e-02  4.2247757380637387e-02  5.4583764483713514e-02  -2.7879393395350643e-02  2.1020613455030243e-02  -3.1139363481789317e-02  -9.4387430926084655e-03  -1.7615891416181736e-02  -1.3730369418837358e-02  -1.7775457105714661e-02  -3.1172078838941429e-02  -2.8855415123104702e-02  -1.7746980886750335e-02  5.0339526151419777e-03  1.9325852403584261e-02  -2.7183261647644806e-02  -1.9876918068716221e-02  -1.7769842754093022e-02  -1.7726152505423271e-02  -1.3200292271096984e-02  2.5359831627921586e-02  6.4190022841508773e-03  -3.1711103417010895e-02  -2.9957098262788417e-02  -3.1062041318975005e-02  3.1883553431565681e-02  3.5341965546829515e-02  2.4138478044403413e-02  2.9281673027261115e-02  3.7254424771802429e-02  4.7709775623104952e-02  4.9242183439929782e-02  -2.8234208728968424e-02  -3.0988650099790179e-02  -3.1830147060490491e-02  3.7601423401677950e-02  -1.4236183958930528e-02  -2.9041486112342332e-02  1.7499414051166472e-02  4.8868964363250410e-02  6.9256462418370466e-03  -2.6857172515442552e-02  -1.4243070880756232e-02  5.0597554653827266e-02  -1.2836195488290214e-02  -1.1029985477252671e-02  -1.3238467246065174e-02  -1.3414465318966800e-02  -1.3828515351285002e-02  5.2423664977048881e-02  5.4671978635602761e-02  3.5122605627212970e-02  4.6050516411504969e-02  -3.0160469140013062e-02  -2.4481887788394417e-02  -3.1752434569032227e-02  -1.9252749502203209e-02  -2.8331072879933254e-02  -2.6501922767197244e-02  -1.0158425887320686e-02  -2.7932226409058382e-02  3.7417930760821720e-02  -3.1633913688463099e-02  4.9270734261461460e-02  4.7292037419372102e-02  -1.6940651491103822e-02  -3.1742959202479951e-02  -3.0736834354402821e-02  -1.2916316782921119e-02  -3.0399625148135073e-02  -3.0919372317293685e-02  -1.2464368454711675e-02  2.9552693701458941e-02  -1.2504467056365541e-02  -1.2289683817561913e-02  -2.7002383609875249e-02  1.7083533611067445e-02  2.5497906889673860e-02  4.1432196870817443e-02  -1.2432454838338238e-02  -3.1732680534208281e-02  -2.7941041167164716e-02  -4.2167645232314014e-03  3.1416250247407337e-02  -3.1801605171636528e-02  -1.1479226730674707e-03  2.9718531351507042e-02  4.7462712302944028e-02  -3.0113545484619090e-02  -2.9704598637474097e-02  -1.6797838013159289e-04  -2.6085737437040662e-02  -2.5080846180673359e-02  -3.0072727506633749e-02  -1.2582036930877784e-02  -2.9487040095035180e-02  -3.0874114936210232e-02  -1.2315661319810428e-02  -3.0321123094093599e-02  -2.9990440682464568e-02  -1.2041503267766412e-02  -2.5924908417369844e-02  -1.1759382931132243e-02  -2.8087710206077355e-02  -2.6009882785619574e-02  -1.2644440296487211e-02  5.4748289541628067e-02  -2.5577926849716756e-02  5.2521763633077687e-02  5.0852469868487925e-02  -3.1621149462706166e-02  -1.2198395971859422e-02  -2.0640494616833389e-02  -2.5422777459448216e-02  3.4346032666735950e-02  -2.5447224998179058e-02  -3.1300041033078235e-02  5.4238682718343284e-02  -2.9096129275233175e-02  -1.1636690191866608e-02  -1.6305986728613088e-02  -2.9241681607620230e-02  2.5577189340734070e-02  1.0626685598253494e-02  -3.1344520709966482e-02  -1.5836789568544757e-02  5.3195466005183961e-02  -2.1417354074477014e-02  -1.1670422722217836e-02  -7.0714313688106335e-03  -1.1467527251108027e-02  -2.8123032824354265e-02  -1.1319400799005366e-03  -1.3143953380249578e-02  4.7838064236136110e-02  -1.1165484272162005e-02  -2.9329055134343914e-02  -1.1615569089598281e-02  1.6439752207739810e-02  -1.7484270855045676e-02  -3.0135841862895172e-02  -1.6808307756547999e-02  -1.1575316000600923e-02  -2.8152630291696953e-02  1.6652797039619211e-02  -1.6069418525451191e-02  -2.2935314369556207e-02  -3.1759499006147530e-02  -1.1513211183647161e-02  -1.1505498187154965e-02  -1.0979030218982954e-02  -2.3745351258270795e-02  6.9351680693538345e-03  -3.1813525761330813e-02  -9.8470309535629193e-03  -1.8313436125409758e-02  -1.1183891520392583e-02  -2.7328372634446988e-02  -2.9041799638101860e-02  -2.4293985401915671e-02  -2.4449124036172921e-02  1.0428471259420945e-02  2.4897604007740864e-02  4.9379563746687609e-02  2.3659264344108550e-02  -2.8619178953117358e-02  4.1656953897081052e-02  1.3075490322778177e-03  -2.7732482347456153e-02  -1.0725899740666124e-02  -1.6502760194073922e-02  -2.4169390121110589e-02  -2.8650603749429984e-02  -3.1826373418018791e-02  2.2621857217448204e-02  -3.1771399660235566e-02  -1.0774079039879236e-02  -1.0635107318704286e-02  -1.4163354026740752e-02  -2.8529652371263363e-02  -2.5819987540944413e-02  -3.1681437520004137e-02  -2.4487793478960011e-02  -2.6957448119430859e-02  -2.6796931500017048e-02  -2.4159532292697371e-02  -2.8801278859658622e-02  -3.7447322085195852e-04  -2.0528904857082232e-02  -1.3769696151116612e-02  -2.1275816722143948e-02  -5.9320509419083676e-03  1.5190910546044824e-02  -2.4076767611571116e-02  1.3038160772907946e-02  -3.1269402943989742e-02  5.4021993987903069e-02  -2.6580853709025389e-02  -1.0478745705991106e-03  -8.9246430144247785e-03  1.9041178816942436e-02  -2.3592547351637013e-02  -1.0788158731778632e-02  -1.0977786656583220e-02  4.3133228798003881e-02  -3.0381218524893890e-02  -4.5052062731700060e-03  4.5450784212854487e-06  -2.0482200449529024e-02  -2.0340973455114340e-02  -1.0619693850841268e-02  4.8281647259581235e-02  3.4807944275945343e-02  2.3545067520811254e-03  -3.1599906169067229e-02  -2.6826083571022081e-02  -2.3902789135837328e-02  -3.1815062668430802e-02  -3.1732539093491767e-02  -1.7336517952192675e-02  -2.2651288530134508e-02  3.0516050301372952e-03  -4.7669410935294795e-03  -2.8969156478537789e-02  4.8510816197387945e-02  -3.1673814141310451e-02  -4.1406912783917334e-03  -3.1099102621678212e-02  -2.5215207846696484e-02  -2.8265362705000817e-02  -3.1514690622247363e-02  -1.0012344157821351e-02  -2.6128372551751617e-02  -1.0226015537060070e-02  -2.2528849922869135e-02  -1.7065000361334390e-02  2.8934069551904036e-02  -3.0228136720974290e-02  -1.9076891149715450e-02  -3.1448892364762594e-02  1.3490902487864737e-02  -1.6770660125675227e-02  3.3429652259964138e-02  -1.6805279987845173e-02  1.2797999323994065e-02  -1.5196881590378981e-02  -9.8763513067964357e-03  -1.1411655176069473e-02  -8.0660084941116122