<?xml version="1.0"?>
<VTKFile type="UnstructuredGrid"  version="0.1"  >
<UnstructuredGrid>
<Piece  NumberOfPoints="8321" NumberOfCells="16384">
<Points>
<DataArray  type="Float64"  NumberOfComponents="3"  format="ascii">0 0 0  0.03125 0 0  0.0625 0 0  0.09375 0 0  0.125 0 0  0.15625 0 0  0.1875 0 0  0.21875 0 0  0.25 0 0  0.28125 0 0  0.3125 0 0  0.34375 0 0  0.375 0 0  0.40625 0 0  0.4375 0 0  0.46875 0 0  0.5 0 0  0.53125 0 0  0.5625 0 0  0.59375 0 0  0.625 0 0  0.65625 0 0  0.6875 0 0  0.71875 0 0  0.75 0 0  0.78125 0 0  0.8125 0 0  0.84375 0 0  0.875 0 0  0.90625 0 0  0.9375 0 0  0.96875 0 0  1 0 0  0 0.03125 0  0.03125 0.03125 0  0.0625 0.03125 0  0.09375 0.03125 0  0.125 0.03125 0  0.15625 0.03125 0  0.1875 0.03125 0  0.21875 0.03125 0  0.25 0.03125 0  0.28125 0.03125 0  0.3125 0.03125 0  0.34375 0.03125 0  0.375 0.03125 0  0.40625 0.03125 0  0.4375 0.03125 0  0.46875 0.03125 0  0.5 0.03125 0  0.53125 0.03125 0  0.5625 0.03125 0  0.59375 0.03125 0  0.625 0.03125 0  0.65625 0.03125 0  0.6875 0.03125 0  0.71875 0.03125 0  0.75 0.03125 0  0.78125 0.03125 0  0.8125 0.03125 0  0.84375 0.03125 0  0.875 0.03125 0  0.90625 0.03125 0  0.9375 0.03125 0  0.96875 0.03125 0  1 0.03125 0  0 0.0625 0  0.03125 0.0625 0  0.0625 0.0625 0  0.09375 0.0625 0  0.125 0.0625 0  0.15625 0.0625 0  0.1875 0.0625 0  0.21875 0.0625 0  0.25 0.0625 0  0.28125 0.0625 0  0.3125 0.0625 0  0.34375 0.0625 0  0.375 0.0625 0  0.40625 0.0625 0  0.4375 0.0625 0  0.46875 0.0625 0  0.5 0.0625 0  0.53125 0.0625 0  0.5625 0.0625 0  0.59375 0.0625 0  0.625 0.0625 0  0.65625 0.0625 0  0.6875 0.0625 0  0.71875 0.0625 0  0.75 0.0625 0  0.78125 0.0625 0  0.8125 0.0625 0  0.84375 0.0625 0  0.875 0.0625 0  0.90625 0.0625 0  0.9375 0.0625 0  0.96875 0.0625 0  1 0.0625 0  0 0.09375 0  0.03125 0.09375 0  0.0625 0.09375 0  0.09375 0.09375 0  0.125 0.09375 0  0.15625 0.09375 0  0.1875 0.09375 0  0.21875 0.09375 0  0.25 0.09375 0  0.28125 0.09375 0  0.3125 0.09375 0  0.34375 0.09375 0  0.375 0.09375 0  0.40625 0.09375 0  0.4375 0.09375 0  0.46875 0.09375 0  0.5 0.09375 0  0.53125 0.09375 0  0.5625 0.09375 0  0.59375 0.09375 0  0.625 0.09375 0  0.65625 0.09375 0  0.6875 0.09375 0  0.71875 0.09375 0  0.75 0.09375 0  0.78125 0.09375 0  0.8125 0.09375 0  0.84375 0.09375 0  0.875 0.09375 0  0.90625 0.09375 0  0.9375 0.09375 0  0.96875 0.09375 0  1 0.09375 0  0 0.125 0  0.03125 0.125 0  0.0625 0.125 0  0.09375 0.125 0  0.125 0.125 0  0.15625 0.125 0  0.1875 0.125 0  0.21875 0.125 0  0.25 0.125 0  0.28125 0.125 0  0.3125 0.125 0  0.34375 0.125 0  0.375 0.125 0  0.40625 0.125 0  0.4375 0.125 0  0.46875 0.125 0  0.5 0.125 0  0.53125 0.125 0  0.5625 0.125 0  0.59375 0.125 0  0.625 0.125 0  0.65625 0.125 0  0.6875 0.125 0  0.71875 0.125 0  0.75 0.125 0  0.78125 0.125 0  0.8125 0.125 0  0.84375 0.125 0  0.875 0.125 0  0.90625 0.125 0  0.9375 0.125 0  0.96875 0.125 0  1 0.125 0  0 0.15625 0  0.03125 0.15625 0  0.0625 0.15625 0  0.09375 0.15625 0  0.125 0.15625 0  0.15625 0.15625 0  0.1875 0.15625 0  0.21875 0.15625 0  0.25 0.15625 0  0.28125 0.15625 0  0.3125 0.15625 0  0.34375 0.15625 0  0.375 0.15625 0  0.40625 0.15625 0  0.4375 0.15625 0  0.46875 0.15625 0  0.5 0.15625 0  0.53125 0.15625 0  0.5625 0.15625 0  0.59375 0.15625 0  0.625 0.15625 0  0.65625 0.15625 0  0.6875 0.15625 0  0.71875 0.15625 0  0.75 0.15625 0  0.78125 0.15625 0  0.8125 0.15625 0  0.84375 0.15625 0  0.875 0.15625 0  0.90625 0.15625 0  0.9375 0.15625 0  0.96875 0.15625 0  1 0.15625 0  0 0.1875 0  0.03125 0.1875 0  0.0625 0.1875 0  0.09375 0.1875 0  0.125 0.1875 0  0.15625 0.1875 0  0.1875 0.1875 0  0.21875 0.1875 0  0.25 0.1875 0  0.28125 0.1875 0  0.3125 0.1875 0  0.34375 0.1875 0  0.375 0.1875 0  0.40625 0.1875 0  0.4375 0.1875 0  0.46875 0.1875 0  0.5 0.1875 0  0.53125 0.1875 0  0.5625 0.1875 0  0.59375 0.1875 0  0.625 0.1875 0  0.65625 0.1875 0  0.6875 0.1875 0  0.71875 0.1875 0  0.75 0.1875 0  0.78125 0.1875 0  0.8125 0.1875 0  0.84375 0.1875 0  0.875 0.1875 0  0.90625 0.1875 0  0.9375 0.1875 0  0.96875 0.1875 0  1 0.1875 0  0 0.21875 0  0.03125 0.21875 0  0.0625 0.21875 0  0.09375 0.21875 0  0.125 0.21875 0  0.15625 0.21875 0  0.1875 0.21875 0  0.21875 0.21875 0  0.25 0.21875 0  0.28125 0.21875 0  0.3125 0.21875 0  0.34375 0.21875 0  0.375 0.21875 0  0.40625 0.21875 0  0.4375 0.21875 0  0.46875 0.21875 0  0.5 0.21875 0  0.53125 0.21875 0  0.5625 0.21875 0  0.59375 0.21875 0  0.625 0.21875 0  0.65625 0.21875 0  0.6875 0.21875 0  0.71875 0.21875 0  0.75 0.21875 0  0.78125 0.21875 0  0.8125 0.21875 0  0.84375 0.21875 0  0.875 0.21875 0  0.90625 0.21875 0  0.9375 0.21875 0  0.96875 0.21875 0  1 0.21875 0  0 0.25 0  0.03125 0.25 0  0.0625 0.25 0  0.09375 0.25 0  0.125 0.25 0  0.15625 0.25 0  0.1875 0.25 0  0.21875 0.25 0  0.25 0.25 0  0.28125 0.25 0  0.3125 0.25 0  0.34375 0.25 0  0.375 0.25 0  0.40625 0.25 0  0.4375 0.25 0  0.46875 0.25 0  0.5 0.25 0  0.53125 0.25 0  0.5625 0.25 0  0.59375 0.25 0  0.625 0.25 0  0.65625 0.25 0  0.6875 0.25 0  0.71875 0.25 0  0.75 0.25 0  0.78125 0.25 0  0.8125 0.25 0  0.84375 0.25 0  0.875 0.25 0  0.90625 0.25 0  0.9375 0.25 0  0.96875 0.25 0  1 0.25 0  0 0.28125 0  0.03125 0.28125 0  0.0625 0.28125 0  0.09375 0.28125 0  0.125 0.28125 0  0.15625 0.28125 0  0.1875 0.28125 0  0.21875 0.28125 0  0.25 0.28125 0  0.28125 0.28125 0  0.3125 0.28125 0  0.34375 0.28125 0  0.375 0.28125 0  0.40625 0.28125 0  0.4375 0.28125 0  0.46875 0.28125 0  0.5 0.28125 0  0.53125 0.28125 0  0.5625 0.28125 0  0.59375 0.28125 0  0.625 0.28125 0  0.65625 0.28125 0  0.6875 0.28125 0  0.71875 0.28125 0  0.75 0.28125 0  0.78125 0.28125 0  0.8125 0.28125 0  0.84375 0.28125 0  0.875 0.28125 0  0.90625 0.28125 0  0.9375 0.28125 0  0.96875 0.28125 0  1 0.28125 0  0 0.3125 0  0.03125 0.3125 0  0.0625 0.3125 0  0.09375 0.3125 0  0.125 0.3125 0  0.15625 0.3125 0  0.1875 0.3125 0  0.21875 0.3125 0  0.25 0.3125 0  0.28125 0.3125 0  0.3125 0.3125 0  0.34375 0.3125 0  0.375 0.3125 0  0.40625 0.3125 0  0.4375 0.3125 0  0.46875 0.3125 0  0.5 0.3125 0  0.53125 0.3125 0  0.5625 0.3125 0  0.59375 0.3125 0  0.625 0.3125 0  0.65625 0.3125 0  0.6875 0.3125 0  0.71875 0.3125 0  0.75 0.3125 0  0.78125 0.3125 0  0.8125 0.3125 0  0.84375 0.3125 0  0.875 0.3125 0  0.90625 0.3125 0  0.9375 0.3125 0  0.96875 0.3125 0  1 0.3125 0  0 0.34375 0  0.03125 0.34375 0  0.0625 0.34375 0  0.09375 0.34375 0  0.125 0.34375 0  0.15625 0.34375 0  0.1875 0.34375 0  0.21875 0.34375 0  0.25 0.34375 0  0.28125 0.34375 0  0.3125 0.34375 0  0.34375 0.34375 0  0.375 0.34375 0  0.40625 0.34375 0  0.4375 0.34375 0  0.46875 0.34375 0  0.5 0.34375 0  0.53125 0.34375 0  0.5625 0.34375 0  0.59375 0.34375 0  0.625 0.34375 0  0.65625 0.34375 0  0.6875 0.34375 0  0.71875 0.34375 0  0.75 0.34375 0  0.78125 0.34375 0  0.8125 0.34375 0  0.84375 0.34375 0  0.875 0.34375 0  0.90625 0.34375 0  0.9375 0.34375 0  0.96875 0.34375 0  1 0.34375 0  0 0.375 0  0.03125 0.375 0  0.0625 0.375 0  0.09375 0.375 0  0.125 0.375 0  0.15625 0.375 0  0.1875 0.375 0  0.21875 0.375 0  0.25 0.375 0  0.28125 0.375 0  0.3125 0.375 0  0.34375 0.375 0  0.375 0.375 0  0.40625 0.375 0  0.4375 0.375 0  0.46875 0.375 0  0.5 0.375 0  0.53125 0.375 0  0.5625 0.375 0  0.59375 0.375 0  0.625 0.375 0  0.65625 0.375 0  0.6875 0.375 0  0.71875 0.375 0  0.75 0.375 0  0.78125 0.375 0  0.8125 0.375 0  0.84375 0.375 0  0.875 0.375 0  0.90625 0.375 0  0.9375 0.375 0  0.96875 0.375 0  1 0.375 0  0 0.40625 0  0.03125 0.40625 0  0.0625 0.40625 0  0.09375 0.40625 0  0.125 0.40625 0  0.15625 0.40625 0  0.1875 0.40625 0  0.21875 0.40625 0  0.25 0.40625 0  0.28125 0.40625 0  0.3125 0.40625 0  0.34375 0.40625 0  0.375 0.40625 0  0.40625 0.40625 0  0.4375 0.40625 0  0.46875 0.40625 0  0.5 0.40625 0  0.53125 0.40625 0  0.5625 0.40625 0  0.59375 0.40625 0  0.625 0.40625 0  0.65625 0.40625 0  0.6875 0.40625 0  0.71875 0.40625 0  0.75 0.40625 0  0.78125 0.40625 0  0.8125 0.40625 0  0.84375 0.40625 0  0.875 0.40625 0  0.90625 0.40625 0  0.9375 0.40625 0  0.96875 0.40625 0  1 0.40625 0  0 0.4375 0  0.03125 0.4375 0  0.0625 0.4375 0  0.09375 0.4375 0  0.125 0.4375 0  0.15625 0.4375 0  0.1875 0.4375 0  0.21875 0.4375 0  0.25 0.4375 0  0.28125 0.4375 0  0.3125 0.4375 0  0.34375 0.4375 0  0.375 0.4375 0  0.40625 0.4375 0  0.4375 0.4375 0  0.46875 0.4375 0  0.5 0.4375 0  0.53125 0.4375 0  0.5625 0.4375 0  0.59375 0.4375 0  0.625 0.4375 0  0.65625 0.4375 0  0.6875 0.4375 0  0.71875 0.4375 0  0.75 0.4375 0  0.78125 0.4375 0  0.8125 0.4375 0  0.84375 0.4375 0  0.875 0.4375 0  0.90625 0.4375 0  0.9375 0.4375 0  0.96875 0.4375 0  1 0.4375 0  0 0.46875 0  0.03125 0.46875 0  0.0625 0.46875 0  0.09375 0.46875 0  0.125 0.46875 0  0.15625 0.46875 0  0.1875 0.46875 0  0.21875 0.46875 0  0.25 0.46875 0  0.28125 0.46875 0  0.3125 0.46875 0  0.34375 0.46875 0  0.375 0.46875 0  0.40625 0.46875 0  0.4375 0.46875 0  0.46875 0.46875 0  0.5 0.46875 0  0.53125 0.46875 0  0.5625 0.46875 0  0.59375 0.46875 0  0.625 0.46875 0  0.65625 0.46875 0  0.6875 0.46875 0  0.71875 0.46875 0  0.75 0.46875 0  0.78125 0.46875 0  0.8125 0.46875 0  0.84375 0.46875 0  0.875 0.46875 0  0.90625 0.46875 0  0.9375 0.46875 0  0.96875 0.46875 0  1 0.46875 0  0 0.5 0  0.03125 0.5 0  0.0625 0.5 0  0.09375 0.5 0  0.125 0.5 0  0.15625 0.5 0  0.1875 0.5 0  0.21875 0.5 0  0.25 0.5 0  0.28125 0.5 0  0.3125 0.5 0  0.34375 0.5 0  0.375 0.5 0  0.40625 0.5 0  0.4375 0.5 0  0.46875 0.5 0  0.5 0.5 0  0.53125 0.5 0  0.5625 0.5 0  0.59375 0.5 0  0.625 0.5 0  0.65625 0.5 0  0.6875 0.5 0  0.71875 0.5 0  0.75 0.5 0  0.78125 0.5 0  0.8125 0.5 0  0.84375 0.5 0  0.875 0.5 0  0.90625 0.5 0  0.9375 0.5 0  0.96875 0.5 0  1 0.5 0  0 0.53125 0  0.03125 0.53125 0  0.0625 0.53125 0  0.09375 0.53125 0  0.125 0.53125 0  0.15625 0.53125 0  0.1875 0.53125 0  0.21875 0.53125 0  0.25 0.53125 0  0.28125 0.53125 0  0.3125 0.53125 0  0.34375 0.53125 0  0.375 0.53125 0  0.40625 0.53125 0  0.4375 0.53125 0  0.46875 0.53125 0  0.5 0.53125 0  0.53125 0.53125 0  0.5625 0.53125 0  0.59375 0.53125 0  0.625 0.53125 0  0.65625 0.53125 0  0.6875 0.53125 0  0.71875 0.53125 0  0.75 0.53125 0  0.78125 0.53
[...]
<PointData  Scalars="error indicators"> 
<DataArray  type="Float64"  Name="error indicators"  format="ascii">5.4420045376063012e-10  5.4934972066305471e-10  5.6497978410008521e-10  5.9165082473916211e-10  6.3034352177151924e-10  6.8253886911168984e-10  7.5035187340411711e-10  8.3675110993835479e-10  9.4592623673340985e-10  1.0839297047079451e-09  1.2598678060311432e-09  1.4883009855083046e-09  1.7946590621971274e-09  2.2296399239747913e-09  2.9187804837974193e-09  4.3316657288329648e-09  6.0706371625434201e-09  6.2274817506676752e-09  5.7102493210774955e-09  5.3186605756507282e-09  5.0223636667598889e-09  4.7773035849085128e-09  4.5540524056965314e-09  4.3340846564320380e-09  4.4711898109508821e-09  4.6643069699647682e-09  4.8324781098620469e-09  5.0295869105736910e-09  5.2375206601107276e-09  4.9757268602143769e-09  1.1787409014768787e-08  8.7534314620886727e-08  4.1042678819784551e-07  5.0919260235988867e-10  5.1428984494318037e-10  5.2976903636054053e-10  5.5620643230302220e-10  5.9461111402167351e-10  6.4650734199656493e-10  7.1407201073559947e-10  8.0035917668805897e-10  9.0967293281327202e-10  1.0482105849911174e-09  1.2252331564636547e-09  1.4553470860423300e-09  1.7633551646713902e-09  2.1957620718890408e-09  2.8516473966704046e-09  3.9587139458005272e-09  4.8017957088100219e-09  4.7324599037077221e-09  4.6016974452317992e-09  4.3766772814069384e-09  4.1592342108261262e-09  3.9522700862735346e-09  3.7452801410541117e-09  3.5283223660222275e-09  3.4801422971038958e-09  3.5971283916120845e-09  3.7625024165963414e-09  3.9023643428404237e-09  3.9126968424180238e-09  3.0497166772022855e-09  7.5441506818588336e-09  7.3201344151314586e-08  4.6395730021216887e-07  4.6285481677909097e-10  4.6803241875973605e-10  4.8376677943735454e-10  5.1067713482974337e-10  5.4984645085930895e-10  6.0290667091870349e-10  6.7217875052767502e-10  7.6089625537698042e-10  8.7356510542377272e-10  1.0165568634664978e-09  1.1991191750253645e-09  1.4351507475573890e-09  1.7463618938192632e-09  2.1675812712979044e-09  2.7520050179041489e-09  3.5238380502417223e-09  3.5629200376580479e-09  3.2828166584848934e-09  3.4845212473102095e-09  3.5069518346411589e-09  3.4408391636708620e-09  3.3293772222018472e-09  3.1818303804688096e-09  3.0657806273475526e-09  3.0951792702813501e-09  3.2544989035430085e-09  3.4793505158311936e-09  3.5720614656822375e-09  3.3560926668661822e-09  1.0945320253650447e-09  1.1658679551769190e-08  9.0286635024948461e-08  5.8334323398458137e-07  4.1092419968495680e-10  4.1606230962890962e-10  4.3168316377725251e-10  4.5842013642166347e-10  4.9737662081736232e-10  5.5020427681746991e-10  6.1922736395376572e-10  7.0763202455518537e-10  8.1975127430409562e-10  9.6149313038721445e-10  1.1409756519249630e-09  1.3694160895030377e-09  1.6621269261240462e-09  2.0385339484736111e-09  2.5164330449761304e-09  3.0667334814410504e-09  2.8136595451886806e-09  2.3754508822355473e-09  2.6199711697494971e-09  2.7514812058696038e-09  2.7888166430006500e-09  2.7475300762031639e-09  2.6626197066290920e-09  2.6633437406524455e-09  2.8653828144925744e-09  3.1243498681702847e-09  3.2845098480064892e-09  3.2605870279180505e-09  2.8735833712026224e-09  8.0080964740431824e-10  1.7979678382235108e-08  1.1734191171757677e-07  7.3881177876705734e-07  3.5567459454780003e-10  3.6067740449449820e-10  3.7589021888596998e-10  4.0193834538096256e-10  4.3990547828081683e-10  4.9139955076871811e-10  5.5865228587659925e-10  6.4465988523527315e-10  7.5337295248228616e-10  8.8993813141344970e-10  1.0609672398091339e-09  1.2747198831874478e-09  1.5408264139447502e-09  1.8685453133966101e-09  2.2612778569688581e-09  2.6841319015855246e-09  2.3151334811078445e-09  1.8866192250219683e-09  2.0592032335902767e-09  2.1862416769677446e-09  2.2389075565330834e-09  2.2637501099078352e-09  2.3632545570376385e-09  2.5836675025343169e-09  2.8051533076994519e-09  3.0051654239455615e-09  3.0882173355339179e-09  2.9995677949163853e-09  2.3569879286501230e-09  1.3062800599325083e-09  2.2919265849041438e-08  1.3835497049280141e-07  8.9747134941444308e-07  2.9933033329982014e-10  3.0412965613484163e-10  3.1872503842091012e-10  3.4371897300784464e-10  3.8015007738589246e-10  4.2954562052382583e-10  4.9399590904103166e-10  5.7624882647906634e-10  6.7981654173920445e-10  8.0907047836297643e-10  9.6926333581495580e-10  1.1663359926290170e-09  1.4062133970737054e-09  1.6930807457954454e-09  2.0258865939449838e-09  2.3736104087915809e-09  2.0313023312542515e-09  1.6249790245232164e-09  1.7547504070218865e-09  1.8840408157282230e-09  2.0252355915231165e-09  2.1697771438134110e-09  2.3618307904289811e-09  2.5550008114470148e-09  2.7507891553922348e-09  2.8864190849203864e-09  2.9103244738331357e-09  2.7873573379551031e-09  1.5960354988352025e-09  2.2088094075757404e-09  2.6932201227827842e-08  1.5736313746485904e-07  1.0507759381085078e-06  2.4398462453791442e-10  2.4853773820745331e-10  2.6238453144909842e-10  2.8609590457140844e-10  3.2065162356009354e-10  3.6748164479476428e-10  4.2852049687086698e-10  5.0626756324187244e-10  6.0383712113501034e-10  7.2496451680008449e-10  8.7390337924287364e-10  1.0550986372182470e-09  1.2724597242362808e-09  1.5280392848910719e-09  1.8198974328343869e-09  2.1223784018475544e-09  1.9427699228475874e-09  1.5986265595473488e-09  1.7232373158776813e-09  1.8726126342758878e-09  2.0315268508145274e-09  2.1942708575654621e-09  2.3605106111823337e-09  2.5293091107897182e-09  2.6891035914522411e-09  2.7767874168246600e-09  2.7700561623267082e-09  2.6222095299114896e-09  9.8055253136487426e-10  3.0475104044996810e-09  3.0191460510219841e-08  1.7871101390360327e-07  1.1950471281231976e-06  1.9151214484260098e-10  1.9579771078446273e-10  2.0883008194626221e-10  2.3114352634214495e-10  2.6365219320705828e-10  3.0768370298446905e-10  3.6502082161126959e-10  4.3794211051320310e-10  5.2924340676019257e-10  6.4220662463012108e-10  7.8045920738829158e-10  9.4763966006076177e-10  1.1467682623242039e-09  1.3792551849893596e-09  1.6434694736563261e-09  1.9184009439237209e-09  1.8689366404202039e-09  1.6704621787463431e-09  1.7902299841300266e-09  1.9262915988414447e-09  2.0667121909999181e-09  2.2104783875657990e-09  2.3567078220191512e-09  2.5043817956092196e-09  2.6231460691783839e-09  2.6779994854369418e-09  2.6650651839620717e-09  2.5012891047231317e-09  6.8911117242561135e-10  3.7450636643274467e-09  3.2795494977398864e-08  1.9988461110001022e-07  1.3276481410701488e-06  1.4350308929451584e-10  1.4751633369014780e-10  1.5971868826540929e-10  1.8060439385213743e-10  2.1101798271673008e-10  2.5218355194041258e-10  3.0574065763183869e-10  3.7377852000584951e-10  4.5885251303859761e-10  5.6395433459169577e-10  6.9238932458314059e-10  8.4749466232513244e-10  1.0321238738412196e-09  1.2478515498651580e-09  1.4938328431527160e-09  1.7525090861608729e-09  1.7842005482483732e-09  1.6954117493453970e-09  1.8354416928690500e-09  1.9666155269191738e-09  2.0929070022877105e-09  2.2213484572624707e-09  2.3511357442247123e-09  2.4804362386905197e-09  2.5725283699760047e-09  2.6091588086165189e-09  2.5928828810694033e-09  2.4199300073898917e-09  6.6872781579335225e-10  4.5461047187783359e-09  3.6655433279306747e-08  2.1854366713697988e-07  1.4466056958694463e-06  1.0121993893399574e-10  1.0496795873701363e-10  1.1636043008706287e-10  1.3584839127975208e-10  1.6420264264242028e-10  2.0254117997231811e-10  2.5236439596906352e-10  3.1559256702197497e-10  3.9459463292229797e-10  4.9218765725907661e-10  6.1157089027978487e-10  7.5613658610460719e-10  9.2907691969451640e-10  1.1327004640925669e-09  1.3673313200015970e-09  1.6181590854002037e-09  1.7066048153704656e-09  1.6783511916633037e-09  1.8281335843864203e-09  1.9796143235222767e-09  2.1109443443739558e-09  2.2281648757969283e-09  2.3449052078386795e-09  2.4551449867003384e-09  2.5335503982430840e-09  2.5686060604962390e-09  2.5513880389418774e-09  2.3735148467025904e-09  6.9316587423508264e-10  5.1943840017528421e-09  3.9835108117077060e-08  2.3438550168987711e-07  1.5506231132636410e-06  6.5575523660143548e-11  6.9073183782187166e-11  7.9699145248094431e-11  9.7857681515890819e-11  1.2424037315605887e-10  1.5985279425732223e-10  2.0605153505475358e-10  2.6459027187763994e-10  3.3767124646206055e-10  4.2799306364129416e-10  5.3877342199028230e-10  6.7369894873858858e-10  8.3670361245633565e-10  1.0314015365554131e-09  1.2598810901787526e-09  1.5099356796266792e-09  1.6472801976596624e-09  1.6681748732468111e-09  1.8188527860291354e-09  1.9726182145433332e-09  2.1130554710757761e-09  2.2320416727244565e-09  2.3388419030510705e-09  2.4421398883370135e-09  2.5189363222599647e-09  2.5551288023212401e-09  2.5390996367238504e-09  2.3349524743618612e-09  7.2023632872696312e-10  5.6679564921975751e-09  4.2050985132982541e-08  2.4694489512874396e-07  1.6382898480535791e-06  3.7130126701686968e-11  4.0396566990991996e-11  5.0312316782665395e-11  6.7231131611434535e-11  9.1758569727866577e-11  1.2477772989376271e-10  1.6748780718268337e-10  2.2145904121916431e-10  2.8870935139372890e-10  3.7180908238552366e-10  4.7401672987820706e-10  5.9942697331773036e-10  7.5303935563103080e-10  9.4047195404134863e-10  1.1666796593521028e-09  1.4227703893287854e-09  1.6044237566666360e-09  1.6660698535354055e-09  1.8213358264929795e-09  1.9774887581676901e-09  2.1184800815279687e-09  2.2336907271918717e-09  2.3333721563984646e-09  2.4325329616662342e-09  2.5192112506145162e-09  2.5677644859427616e-09  2.5551914439905380e-09  2.3098686495384944e-09  7.5907872347693822e-10  5.9205505310188912e-09  4.3091997765108088e-08  2.5556995693364154e-07  1.7077604490638629e-06  1.6118068236633976e-11  1.9168143787279434e-11  2.8427699075990910e-11  4.4203295100947825e-11  6.7002769915145523e-11  9.7573522852989833e-11  1.3693724853608473e-10  1.8644801886661768e-10  2.4788707788152834e-10  3.2361762498136267e-10  4.1683735039929607e-10  5.3197449123221986e-10  6.7522982269016917e-10  8.5501515610025458e-10  1.0811715954020146e-09  1.3506506466315498e-09  1.5761748151462720e-09  1.6734564787171258e-09  1.8376536889189896e-09  1.9988754068553956e-09  2.1309872112920281e-09  2.2332789808260382e-09  2.3285327299965506e-09  2.4235259803466475e-09  2.5172061045496317e-09  2.5919971351775596e-09  2.5993177906044754e-09  2.3132964302554659e-09  8.7280034451600588e-10  5.8970236060789643e-09  4.2338694643184841e-08  2.5905793157935355e-07  1.7558704540058303e-06  4.2693254827789924e-12  5.5879777581029119e-12  1.3968428933235066e-11  2.8674007400742940e-11  4.9870622758048542e-11  7.8135089606336058e-11  1.1429016017612500e-10  1.5943190263340811e-10  2.1502702502262837e-10  2.8309017684151271e-10  3.6651552379600999e-10  4.6970011463230771e-10  5.9968779700264420e-10  7.6804897134586909e-10  9.9265592790480717e-10  1.2836222441557014e-09  1.5605828176898650e-09  1.6939333677164170e-09  1.8722397644758808e-09  2.0258442156097185e-09  2.1374640584567801e-09  2.2305012847165971e-09  2.3241021549092352e-09  2.4178352964270973e-09  2.5103976422700733e-09  2.5952816433779046e-09  2.6305098220715654e-09  2.3308949080061619e-09  1.0879288490613378e-09  5.6730586270648949e-09  4.3140757401947489e-08  2.5323351507117691e-07  1.7751478634332411e-06  4.5313495087639590e-12  3.6042458427453955e-12  6.2681057179092777e-12  2.0257010923854460e-11  3.9954763502570388e-11  6.6039493101882579e-11  9.9110373962477036e-11  1.3996386944804052e-10  1.8966549688734556e-10  2.4970316385907269e-10  3.2230645283292692e-10  4.1113174142244806e-10  5.2278829699327921e-10  6.7036306266918841e-10  8.8139573283042861e-10  1.1977419070376605e-09  1.5535178174669457e-09  1.7380737024248362e-09  1.9187602683211326e-09  2.0396770807404813e-09  2.1313458271943154e-09  2.2251247025497165e-09  2.3200113180754107e-09  2.4152963818134824e-09  2.5096690501642816e-09  2.5970248348731998e-09  2.6371288589549093e-09  2.3520461092521921e-09  1.3352078890408310e-09  5.6368373927854297e-09  4.4408043709025062e-08  2.6266822020221150e-07  1.7497875915932040e-06  4.7085823573430736e-12  2.9252793691079576e-12  6.4764256324900490e-12  1.8291454422995571e-11  3.6596648744283989e-11  6.0600598334493227e-11  9.0689947227963662e-11  1.2732995109229520e-10  1.7111181361108839e-10  2.2283000742557675e-10  2.8366735691129264e-10  3.5564353741116335e-10  4.4276279695226972e-10  5.5434870750429114e-10  7.1612326038180822e-10  1.0123575917461324e-09  1.5375500608211039e-09  1.8063792804209851e-09  1.9384824315005900e-09  2.0298982892665396e-09  2.1264776497932292e-09  2.2251329225855026e-09  2.3248123787839980e-09  2.4248556238777757e-09  2.5242009235649714e-09  2.6174525070865711e-09  2.6683969201457570e-09  2.4160812547777367e-09  1.6304852249830806e-09  5.4359015981009620e-09  4.2885582179572471e-08  2.6263127797694640e-07  1.6522781297984194e-06  7.6922209710118828e-13  3.5981223937906369e-12  1.0372802227082492e-11  2.2027987847427798e-11  3.8951430448740723e-11  6.0937036230606148e-11  8.8118852247451686e-11  1.2061753476416773e-10  1.5851248804925242e-10  2.0180777659075226e-10  2.5039244685668773e-10  3.0399819105279799e-10  3.6219739102751017e-10  4.2417194696987461e-10  5.0998737181077693e-10  7.3188022203952537e-10  1.2136563598521080e-09  1.6859386336717604e-09  1.9049518423330609e-09  2.0489476289678561e-09  2.1765201040684592e-09  2.3012084075309460e-09  2.4275552174213116e-09  2.5576879357476398e-09  2.6920635019329885e-09  2.8263132067914950e-09  2.9280785493950353e-09  2.7677720706279957e-09  1.7644386176124846e-09  5.3132521056519467e-09  4.3862699491411320e-08  2.5270413224225062e-07  1.2791139466495080e-06  1.0485830003113838e-11  1.2709740801722556e-11  1.9377855503642637e-11  3.0493475177031630e-11  4.6061400930981085e-11  6.6052531492754788e-11  9.0371072009537320e-11  1.1880313595134639e-10  1.5092856202879754e-10  1.8597486673727529e-10  2.2255167246176929e-10  2.5811646815517561e-10  2.8790996475837304e-10  3.1422854798396182e-10  3.6142645889082624e-10  4.9875548121451214e-10  6.8321548131551296e-10  1.1928872512739718e-09  1.5527174589617798e-09  1.7743606744137600e-09  1.9499031408440691e-09  2.1083868337381944e-09  2.2621192530159231e-09  2.4169738967730123e-09  2.5750172527053591e-09  2.7325192461953064e-09  2.8618121609662257e-09  2.8089996502414110e-09  1.5615811679379975e-09  5.5693444942019709e-09  3.5754665259047207e-08  1.7142538478634013e-07  5.7853400024844962e-07  2.4284447898626923e-11  2.6344474224909488e-11  3.2511116750031148e-11  4.2738905192286490e-11  5.6933693994797141e-11  7.4921765843343401e-11  9.6399336216247426e-11  1.2085172577975693e-10  1.4742166969421316e-10  1.7468557984437683e-10  2.0025036615388080e-10  2.1997877057073443e-10  2.2654477857787466e-10  2.3408217902766100e-10  2.8971770586981802e-10  3.8953667084439660e-10  5.0289719870779037e-10  8.2418965062917892e-10  1.1678198399046411e-09  1.4290182509337760e-09  1.6382393855050260e-09  1.8185373625315716e-09  1.9825650736434728e-09  2.1365937491390042e-09  2.2822112126022469e-09  2.4144525687095339e-09  2.5063107489193705e-09  2.4236067139872365e-09  1.3129098296835472e-09  4.3930184724973424e-09  2.6766146830928624e-08  1.3309443723810444e-07  3.5798147726893761e-07  4.1000280307897072e-11  4.2890742091928713e-11  4.8532985413462898e-11  5.7833187357750717e-11  7.0612668387702478e-11  8.6570695317361683e-11  1.0522376447968210e-10  1.2580944063810371e-10  1.4713307758546735e-10  1.6731754592944327e-10  1.8338204712145551e-10  1.9052361342502643e-10  1.8146729533361530e-10  1.8359180394403303e-10  2.6828236761702866e-10  2.9919776188366883e-10  4.1897091380449276e-10  6.3959954243597904e-10  9.2020522982035428e-10  1.1677639146248577e-09  1.3808660856276149e-09  1.5670468283866546e-09  1.7330593548738609e-09  1.8826052052292353e-09  2.0156860137845874e-09  2.1262407971287053e-09  2.1890207806159875e-09  2.0906650828373910e-09  1.1066889660778315e-09  3.3619385979779521e-09  2.0339101751768247e-08  1.0592891918455091e-07  2.7414927435599362e-07  5.9795768468941888e-11  6.1505732009667241e-11  6.6592650855161048e-11  7.4920578016855223e-11  8.6238522263626071e-11  1.0014018883236139e-10  1.1599944376088593e-10  1.3287102084927375e-10  1.4933917573698532e-10  1.6328682402447213e-10  1.7154531228990460e-10  1.6939454166552988e-10  1.5081169206162280e-10  1.5468333474398739e-10  2.2537238183068940e-10  2.5243127671505231e-10  3.5445924158703680e-10  5.2277322563946866e-10  7.5071188133508893e-10  9.6886954437141193e-10  1.1683355027435899e-09  1.3476750963612521e-09  1.5078209272939422e-09  1.6491255011223192e-09  1.7696618313838876e-09  1.8626392720137451e-09  1.9055769768904471e-09  1.8052175668113575e-09  9.4445819755882407e-10  2.6326415729301946e-09  1.5710709396296415e-08  8.4975542259407968e-08  2.1752943750500754e-07  7.9928013185826136e-11  8.1447170442355314e-11  8.5950194115878524e-11  9.3266591580206280e-11  1.0308756548558780e-10  1.1492607411039716e-10  1.2805453570849258e-10  1.4141287607508015e-10  1.5347666160734356e-10  1.6207315015839796e-10  1.6413752162084493e-10  1.5544438556043084e-10  1.3152992287923062e-10  1.4042187418450460e-10  1.7885992126881461e-10  2.2269694021434192e-10  3.0250609070474219e-10  4.3787021026431493e-10  6.2612310117414644e-10  8.1450916051421599e-10  9.9390356333078665e-10  1.1594736186044174e-09  1.3086352337942212e-09  1.4391472032630955e-09  1.5475275737842196e-09  1.6267346112888389e-09  1.6575076857884579e-09  1.5647089548251444e-09  8.1515639190750150e-10  2.0421886545144622e-09  1.2304856376954924e-08  6.8640581745013084e-08  1.7487307324615059e-07  1.0077795853164994e-10  1.0209880888405699e-10  1.0599813227473102e-10  1.1227946275695798e-10  1.2059218540474519e-10  1.3039480223376847e-10  1.4089956973220875e-10  1.5099486720112665e-10  1.5914190040274185e-10  1.6324578462736283e-10  1.6051281100546097e-10  1.4735197522167892e-10  1.2041417958770908e-10  1.2641986032438812e-10  1.4448083121569489e-10  1.9355741694932480e-10  2.5895362675622452e-10  3.7054120289226417e-10  5.2871711692933879e-10  6.9094369124040912e-10  8.4947633579874106e-10  9.9872051415959831e-10  1.1345100666228479e-09  1.2531229770987928e-09  1.3501784740299499e-09  1.4188284078218944e-09  1.4430192676699206e-09  1.3633240886286160e-09  7.6803722590210127e-10  1.5654316702225652e-09  9.7072219132641704e-09  5.5615170668370266e-08  1.4128211069977226e-07  1.2186222727370037e-10  1.2298171368885019e-10  1.2627104534608156e-10  1.3151680458264345e-10  1.3834289827128809e-10  1.4617905184830397e-10  1.5421520377135108e-10  1.6134132558359453e-10  1.6607431637042271e-10  1.6647911325844204e-10  1.6010315771111844e-10  1.4397760302056355e-10  1.1543855195919894e-10  1.1256575878667899e-10  1.1896555348769927e-10  1.6581283875644255e-10  2.2142162795828904e-10  3.1380874139857356e-10  4.4868635810351199e-10  5.8883159064366240e-10  7.2801325288507348e-10  8.6090011757631842e-10  9.8289052015244106e-10  1.0896744368866789e-09  1.1765735525270331e-09  1.2372509735889973e-09  1.2585792942686173e-09  1.1943220691914841e-09  7.4445501556481821e-10  1.1870461851220216e-09  7.7709674359880643e-09  4.5148879818511357e-08  1.1435989471709163e-07  1.4283328167273753e-10  1.4375374669015716e-10  1.4644297701346099e-10  1.5067943599487391e-10  1.5607705931151088e-10  1.6206001257718964e-10  1.6782782938267832e-10  1.7231265324631546e-10  1.7413308008818073e-10  1.7155441364635464e-10  1.6247423557669528e-10  1.4447152977745102e-10  1.1529283410786677e-10  1.0046217588254043e-10  1.0022898949324244e-10  1.3961004466349645e-10  1.8846603197252908e-10  2.6377399638258925e-10  3.8022463897729105e-10  5.0192480959681271e-10  6.2400817085202128e-10  7.4174186130514571e-10  8.5067059013214206e-10  9.4646377144986905e-10  1.0245649769306565e-09  1.0793224418317061e-09  1.1001458606212374e-09  1.0516175253833229e-09  7.4251514997284412e-10  8.6855233812615461e-10  6.2198416255279662e-09  3.6582670903997201e-08  9.2326820578434775e-08  1.6347013588571208e-10  1.6419961231083986e-10  1.6631549029892652e-10  1.6959616459238813e