<?xml version="1.0"?>
<VTKFile type="UnstructuredGrid"  version="0.1"  >
<UnstructuredGrid>
<Piece  NumberOfPoints="8321" NumberOfCells="16384">
<Points>
<DataArray  type="Float64"  NumberOfComponents="3"  format="ascii">0 0 0  0.03125 0 0  0.0625 0 0  0.09375 0 0  0.125 0 0  0.15625 0 0  0.1875 0 0  0.21875 0 0  0.25 0 0  0.28125 0 0  0.3125 0 0  0.34375 0 0  0.375 0 0  0.40625 0 0  0.4375 0 0  0.46875 0 0  0.5 0 0  0.53125 0 0  0.5625 0 0  0.59375 0 0  0.625 0 0  0.65625 0 0  0.6875 0 0  0.71875 0 0  0.75 0 0  0.78125 0 0  0.8125 0 0  0.84375 0 0  0.875 0 0  0.90625 0 0  0.9375 0 0  0.96875 0 0  1 0 0  0 0.03125 0  0.03125 0.03125 0  0.0625 0.03125 0  0.09375 0.03125 0  0.125 0.03125 0  0.15625 0.03125 0  0.1875 0.03125 0  0.21875 0.03125 0  0.25 0.03125 0  0.28125 0.03125 0  0.3125 0.03125 0  0.34375 0.03125 0  0.375 0.03125 0  0.40625 0.03125 0  0.4375 0.03125 0  0.46875 0.03125 0  0.5 0.03125 0  0.53125 0.03125 0  0.5625 0.03125 0  0.59375 0.03125 0  0.625 0.03125 0  0.65625 0.03125 0  0.6875 0.03125 0  0.71875 0.03125 0  0.75 0.03125 0  0.78125 0.03125 0  0.8125 0.03125 0  0.84375 0.03125 0  0.875 0.03125 0  0.90625 0.03125 0  0.9375 0.03125 0  0.96875 0.03125 0  1 0.03125 0  0 0.0625 0  0.03125 0.0625 0  0.0625 0.0625 0  0.09375 0.0625 0  0.125 0.0625 0  0.15625 0.0625 0  0.1875 0.0625 0  0.21875 0.0625 0  0.25 0.0625 0  0.28125 0.0625 0  0.3125 0.0625 0  0.34375 0.0625 0  0.375 0.0625 0  0.40625 0.0625 0  0.4375 0.0625 0  0.46875 0.0625 0  0.5 0.0625 0  0.53125 0.0625 0  0.5625 0.0625 0  0.59375 0.0625 0  0.625 0.0625 0  0.65625 0.0625 0  0.6875 0.0625 0  0.71875 0.0625 0  0.75 0.0625 0  0.78125 0.0625 0  0.8125 0.0625 0  0.84375 0.0625 0  0.875 0.0625 0  0.90625 0.0625 0  0.9375 0.0625 0  0.96875 0.0625 0  1 0.0625 0  0 0.09375 0  0.03125 0.09375 0  0.0625 0.09375 0  0.09375 0.09375 0  0.125 0.09375 0  0.15625 0.09375 0  0.1875 0.09375 0  0.21875 0.09375 0  0.25 0.09375 0  0.28125 0.09375 0  0.3125 0.09375 0  0.34375 0.09375 0  0.375 0.09375 0  0.40625 0.09375 0  0.4375 0.09375 0  0.46875 0.09375 0  0.5 0.09375 0  0.53125 0.09375 0  0.5625 0.09375 0  0.59375 0.09375 0  0.625 0.09375 0  0.65625 0.09375 0  0.6875 0.09375 0  0.71875 0.09375 0  0.75 0.09375 0  0.78125 0.09375 0  0.8125 0.09375 0  0.84375 0.09375 0  0.875 0.09375 0  0.90625 0.09375 0  0.9375 0.09375 0  0.96875 0.09375 0  1 0.09375 0  0 0.125 0  0.03125 0.125 0  0.0625 0.125 0  0.09375 0.125 0  0.125 0.125 0  0.15625 0.125 0  0.1875 0.125 0  0.21875 0.125 0  0.25 0.125 0  0.28125 0.125 0  0.3125 0.125 0  0.34375 0.125 0  0.375 0.125 0  0.40625 0.125 0  0.4375 0.125 0  0.46875 0.125 0  0.5 0.125 0  0.53125 0.125 0  0.5625 0.125 0  0.59375 0.125 0  0.625 0.125 0  0.65625 0.125 0  0.6875 0.125 0  0.71875 0.125 0  0.75 0.125 0  0.78125 0.125 0  0.8125 0.125 0  0.84375 0.125 0  0.875 0.125 0  0.90625 0.125 0  0.9375 0.125 0  0.96875 0.125 0  1 0.125 0  0 0.15625 0  0.03125 0.15625 0  0.0625 0.15625 0  0.09375 0.15625 0  0.125 0.15625 0  0.15625 0.15625 0  0.1875 0.15625 0  0.21875 0.15625 0  0.25 0.15625 0  0.28125 0.15625 0  0.3125 0.15625 0  0.34375 0.15625 0  0.375 0.15625 0  0.40625 0.15625 0  0.4375 0.15625 0  0.46875 0.15625 0  0.5 0.15625 0  0.53125 0.15625 0  0.5625 0.15625 0  0.59375 0.15625 0  0.625 0.15625 0  0.65625 0.15625 0  0.6875 0.15625 0  0.71875 0.15625 0  0.75 0.15625 0  0.78125 0.15625 0  0.8125 0.15625 0  0.84375 0.15625 0  0.875 0.15625 0  0.90625 0.15625 0  0.9375 0.15625 0  0.96875 0.15625 0  1 0.15625 0  0 0.1875 0  0.03125 0.1875 0  0.0625 0.1875 0  0.09375 0.1875 0  0.125 0.1875 0  0.15625 0.1875 0  0.1875 0.1875 0  0.21875 0.1875 0  0.25 0.1875 0  0.28125 0.1875 0  0.3125 0.1875 0  0.34375 0.1875 0  0.375 0.1875 0  0.40625 0.1875 0  0.4375 0.1875 0  0.46875 0.1875 0  0.5 0.1875 0  0.53125 0.1875 0  0.5625 0.1875 0  0.59375 0.1875 0  0.625 0.1875 0  0.65625 0.1875 0  0.6875 0.1875 0  0.71875 0.1875 0  0.75 0.1875 0  0.78125 0.1875 0  0.8125 0.1875 0  0.84375 0.1875 0  0.875 0.1875 0  0.90625 0.1875 0  0.9375 0.1875 0  0.96875 0.1875 0  1 0.1875 0  0 0.21875 0  0.03125 0.21875 0  0.0625 0.21875 0  0.09375 0.21875 0  0.125 0.21875 0  0.15625 0.21875 0  0.1875 0.21875 0  0.21875 0.21875 0  0.25 0.21875 0  0.28125 0.21875 0  0.3125 0.21875 0  0.34375 0.21875 0  0.375 0.21875 0  0.40625 0.21875 0  0.4375 0.21875 0  0.46875 0.21875 0  0.5 0.21875 0  0.53125 0.21875 0  0.5625 0.21875 0  0.59375 0.21875 0  0.625 0.21875 0  0.65625 0.21875 0  0.6875 0.21875 0  0.71875 0.21875 0  0.75 0.21875 0  0.78125 0.21875 0  0.8125 0.21875 0  0.84375 0.21875 0  0.875 0.21875 0  0.90625 0.21875 0  0.9375 0.21875 0  0.96875 0.21875 0  1 0.21875 0  0 0.25 0  0.03125 0.25 0  0.0625 0.25 0  0.09375 0.25 0  0.125 0.25 0  0.15625 0.25 0  0.1875 0.25 0  0.21875 0.25 0  0.25 0.25 0  0.28125 0.25 0  0.3125 0.25 0  0.34375 0.25 0  0.375 0.25 0  0.40625 0.25 0  0.4375 0.25 0  0.46875 0.25 0  0.5 0.25 0  0.53125 0.25 0  0.5625 0.25 0  0.59375 0.25 0  0.625 0.25 0  0.65625 0.25 0  0.6875 0.25 0  0.71875 0.25 0  0.75 0.25 0  0.78125 0.25 0  0.8125 0.25 0  0.84375 0.25 0  0.875 0.25 0  0.90625 0.25 0  0.9375 0.25 0  0.96875 0.25 0  1 0.25 0  0 0.28125 0  0.03125 0.28125 0  0.0625 0.28125 0  0.09375 0.28125 0  0.125 0.28125 0  0.15625 0.28125 0  0.1875 0.28125 0  0.21875 0.28125 0  0.25 0.28125 0  0.28125 0.28125 0  0.3125 0.28125 0  0.34375 0.28125 0  0.375 0.28125 0  0.40625 0.28125 0  0.4375 0.28125 0  0.46875 0.28125 0  0.5 0.28125 0  0.53125 0.28125 0  0.5625 0.28125 0  0.59375 0.28125 0  0.625 0.28125 0  0.65625 0.28125 0  0.6875 0.28125 0  0.71875 0.28125 0  0.75 0.28125 0  0.78125 0.28125 0  0.8125 0.28125 0  0.84375 0.28125 0  0.875 0.28125 0  0.90625 0.28125 0  0.9375 0.28125 0  0.96875 0.28125 0  1 0.28125 0  0 0.3125 0  0.03125 0.3125 0  0.0625 0.3125 0  0.09375 0.3125 0  0.125 0.3125 0  0.15625 0.3125 0  0.1875 0.3125 0  0.21875 0.3125 0  0.25 0.3125 0  0.28125 0.3125 0  0.3125 0.3125 0  0.34375 0.3125 0  0.375 0.3125 0  0.40625 0.3125 0  0.4375 0.3125 0  0.46875 0.3125 0  0.5 0.3125 0  0.53125 0.3125 0  0.5625 0.3125 0  0.59375 0.3125 0  0.625 0.3125 0  0.65625 0.3125 0  0.6875 0.3125 0  0.71875 0.3125 0  0.75 0.3125 0  0.78125 0.3125 0  0.8125 0.3125 0  0.84375 0.3125 0  0.875 0.3125 0  0.90625 0.3125 0  0.9375 0.3125 0  0.96875 0.3125 0  1 0.3125 0  0 0.34375 0  0.03125 0.34375 0  0.0625 0.34375 0  0.09375 0.34375 0  0.125 0.34375 0  0.15625 0.34375 0  0.1875 0.34375 0  0.21875 0.34375 0  0.25 0.34375 0  0.28125 0.34375 0  0.3125 0.34375 0  0.34375 0.34375 0  0.375 0.34375 0  0.40625 0.34375 0  0.4375 0.34375 0  0.46875 0.34375 0  0.5 0.34375 0  0.53125 0.34375 0  0.5625 0.34375 0  0.59375 0.34375 0  0.625 0.34375 0  0.65625 0.34375 0  0.6875 0.34375 0  0.71875 0.34375 0  0.75 0.34375 0  0.78125 0.34375 0  0.8125 0.34375 0  0.84375 0.34375 0  0.875 0.34375 0  0.90625 0.34375 0  0.9375 0.34375 0  0.96875 0.34375 0  1 0.34375 0  0 0.375 0  0.03125 0.375 0  0.0625 0.375 0  0.09375 0.375 0  0.125 0.375 0  0.15625 0.375 0  0.1875 0.375 0  0.21875 0.375 0  0.25 0.375 0  0.28125 0.375 0  0.3125 0.375 0  0.34375 0.375 0  0.375 0.375 0  0.40625 0.375 0  0.4375 0.375 0  0.46875 0.375 0  0.5 0.375 0  0.53125 0.375 0  0.5625 0.375 0  0.59375 0.375 0  0.625 0.375 0  0.65625 0.375 0  0.6875 0.375 0  0.71875 0.375 0  0.75 0.375 0  0.78125 0.375 0  0.8125 0.375 0  0.84375 0.375 0  0.875 0.375 0  0.90625 0.375 0  0.9375 0.375 0  0.96875 0.375 0  1 0.375 0  0 0.40625 0  0.03125 0.40625 0  0.0625 0.40625 0  0.09375 0.40625 0  0.125 0.40625 0  0.15625 0.40625 0  0.1875 0.40625 0  0.21875 0.40625 0  0.25 0.40625 0  0.28125 0.40625 0  0.3125 0.40625 0  0.34375 0.40625 0  0.375 0.40625 0  0.40625 0.40625 0  0.4375 0.40625 0  0.46875 0.40625 0  0.5 0.40625 0  0.53125 0.40625 0  0.5625 0.40625 0  0.59375 0.40625 0  0.625 0.40625 0  0.65625 0.40625 0  0.6875 0.40625 0  0.71875 0.40625 0  0.75 0.40625 0  0.78125 0.40625 0  0.8125 0.40625 0  0.84375 0.40625 0  0.875 0.40625 0  0.90625 0.40625 0  0.9375 0.40625 0  0.96875 0.40625 0  1 0.40625 0  0 0.4375 0  0.03125 0.4375 0  0.0625 0.4375 0  0.09375 0.4375 0  0.125 0.4375 0  0.15625 0.4375 0  0.1875 0.4375 0  0.21875 0.4375 0  0.25 0.4375 0  0.28125 0.4375 0  0.3125 0.4375 0  0.34375 0.4375 0  0.375 0.4375 0  0.40625 0.4375 0  0.4375 0.4375 0  0.46875 0.4375 0  0.5 0.4375 0  0.53125 0.4375 0  0.5625 0.4375 0  0.59375 0.4375 0  0.625 0.4375 0  0.65625 0.4375 0  0.6875 0.4375 0  0.71875 0.4375 0  0.75 0.4375 0  0.78125 0.4375 0  0.8125 0.4375 0  0.84375 0.4375 0  0.875 0.4375 0  0.90625 0.4375 0  0.9375 0.4375 0  0.96875 0.4375 0  1 0.4375 0  0 0.46875 0  0.03125 0.46875 0  0.0625 0.46875 0  0.09375 0.46875 0  0.125 0.46875 0  0.15625 0.46875 0  0.1875 0.46875 0  0.21875 0.46875 0  0.25 0.46875 0  0.28125 0.46875 0  0.3125 0.46875 0  0.34375 0.46875 0  0.375 0.46875 0  0.40625 0.46875 0  0.4375 0.46875 0  0.46875 0.46875 0  0.5 0.46875 0  0.53125 0.46875 0  0.5625 0.46875 0  0.59375 0.46875 0  0.625 0.46875 0  0.65625 0.46875 0  0.6875 0.46875 0  0.71875 0.46875 0  0.75 0.46875 0  0.78125 0.46875 0  0.8125 0.46875 0  0.84375 0.46875 0  0.875 0.46875 0  0.90625 0.46875 0  0.9375 0.46875 0  0.96875 0.46875 0  1 0.46875 0  0 0.5 0  0.03125 0.5 0  0.0625 0.5 0  0.09375 0.5 0  0.125 0.5 0  0.15625 0.5 0  0.1875 0.5 0  0.21875 0.5 0  0.25 0.5 0  0.28125 0.5 0  0.3125 0.5 0  0.34375 0.5 0  0.375 0.5 0  0.40625 0.5 0  0.4375 0.5 0  0.46875 0.5 0  0.5 0.5 0  0.53125 0.5 0  0.5625 0.5 0  0.59375 0.5 0  0.625 0.5 0  0.65625 0.5 0  0.6875 0.5 0  0.71875 0.5 0  0.75 0.5 0  0.78125 0.5 0  0.8125 0.5 0  0.84375 0.5 0  0.875 0.5 0  0.90625 0.5 0  0.9375 0.5 0  0.96875 0.5 0  1 0.5 0  0 0.53125 0  0.03125 0.53125 0  0.0625 0.53125 0  0.09375 0.53125 0  0.125 0.53125 0  0.15625 0.53125 0  0.1875 0.53125 0  0.21875 0.53125 0  0.25 0.53125 0  0.28125 0.53125 0  0.3125 0.53125 0  0.34375 0.53125 0  0.375 0.53125 0  0.40625 0.53125 0  0.4375 0.53125 0  0.46875 0.53125 0  0.5 0.53125 0  0.53125 0.53125 0  0.5625 0.53125 0  0.59375 0.53125 0  0.625 0.53125 0  0.65625 0.53125 0  0.6875 0.53125 0  0.71875 0.53125 0  0.75 0.53125 0  0.78125 0.53
[...]
<PointData  Scalars="primal solution"> 
<DataArray  type="Float64"  Name="primal solution"  format="ascii">0.0000000000000000e+00  0.0000000000000000e+00  0.0000000000000000e+00  0.0000000000000000e+00  0.0000000000000000e+00  0.0000000000000000e+00  0.0000000000000000e+00  0.0000000000000000e+00  0.0000000000000000e+00  0.0000000000000000e+00  0.0000000000000000e+00  0.0000000000000000e+00  0.0000000000000000e+00  0.0000000000000000e+00  0.0000000000000000e+00  0.0000000000000000e+00  0.0000000000000000e+00  0.0000000000000000e+00  0.0000000000000000e+00  0.0000000000000000e+00  0.0000000000000000e+00  0.0000000000000000e+00  0.0000000000000000e+00  0.0000000000000000e+00  0.0000000000000000e+00  0.0000000000000000e+00  0.0000000000000000e+00  0.0000000000000000e+00  0.0000000000000000e+00  0.0000000000000000e+00  0.0000000000000000e+00  0.0000000000000000e+00  0.0000000000000000e+00  0.0000000000000000e+00  9.4641185238606991e-04  1.8928241983110052e-03  2.8392375378939383e-03  3.7856523846452293e-03  4.7320692727576804e-03  5.6784887651675549e-03  6.6249114627407214e-03  7.5713380150385680e-03  8.5177691332642344e-03  9.4642056062012626e-03  1.0410648320263964e-02  1.1357098285229619e-02  1.2303556667890434e-02  1.3250024836869972e-02  1.4196504423394369e-02  1.5142997405233333e-02  1.6089506224925165e-02  1.7036033959844633e-02  1.7982584572634439e-02  1.8929163289416399e-02  1.9875777182576066e-02  2.0822436039709596e-02  2.1769153171818687e-02  2.2715941577489230e-02  2.3662768569268435e-02  2.4609213091160514e-02  2.5552210061165290e-02  2.6472421247855121e-02  2.7257454355515617e-02  2.7295546976382888e-02  2.3445581383221416e-02  0.0000000000000000e+00  0.0000000000000000e+00  1.8314701647702903e-03  3.6629413100806472e-03  5.4944144294044551e-03  7.3258905425246171e-03  9.1573707098311693e-03  1.0988856048094195e-02  1.2820347748389836e-02  1.4651847097043624e-02  1.6483355500728349e-02  1.8314874517247615e-02  2.0146405894106111e-02  2.1977951617796771e-02  2.3809513977956453e-02  2.5641095652365081e-02  2.7472699821533983e-02  2.9304330325921668e-02  3.1135991885616370e-02  3.2967690413364482e-02  3.4799433470182273e-02  3.6631230943409178e-02  3.8463096070881962e-02  4.0295046913782662e-02  4.2127107475083379e-02  4.3959299254016045e-02  4.5791550885726354e-02  4.7623028034112252e-02  4.9447748058170392e-02  5.1228145401659007e-02  5.2746324546482884e-02  5.2817483625433724e-02  4.5362534144964044e-02  0.0000000000000000e+00  0.0000000000000000e+00  2.6554923427741192e-03  5.3109861402379898e-03  7.9664828659314173e-03  1.0621984031714465e-02  1.3277491208526325e-02  1.5933006049204085e-02  1.8588530314299825e-02  2.1244065902086551e-02  2.3899614884308171e-02  2.6555179549754396e-02  2.9210762458491045e-02  3.1866366510659619e-02  3.4521995035331342e-02  3.7177651907215517e-02  3.9833341702472248e-02  4.2489069910114037e-02  4.5144843223558995e-02  4.7800669949607168e-02  5.0456560592409598e-02  5.3112528701843589e-02  5.5768592113215651e-02  5.8424774618053232e-02  6.1081106663578029e-02  6.3737611180629039e-02  6.6394168324744957e-02  6.9049534114382180e-02  7.1694959337385150e-02  7.4275812121064252e-02  7.6475829411877819e-02  7.6576717366491159e-02  6.5765194064758198e-02  0.0000000000000000e+00  0.0000000000000000e+00  3.4184779133511162e-03  6.8369577368061971e-03  1.0255441404624836e-02  1.3673930900127654e-02  1.7092428282157367e-02  2.0510935714020205e-02  2.3929455496024720e-02  2.7347990103023256e-02  3.0766542228775923e-02  3.4185114839545123e-02  3.7603711240162048e-02  4.1022335156986230e-02  4.4440990843864575e-02  4.7859683219618400e-02  5.1278418049106052e-02  5.4697202185073422e-02  5.8116043895668726e-02  6.1534953313972358e-02  6.4953943063077627e-02  6.8373029134390959e-02  7.1792232112402446e-02  7.5211578661732947e-02  7.8631101202528447e-02  8.2050817337074755e-02  8.5470551199951270e-02  8.8888661323935650e-02  9.2293809906089472e-02  9.5615534784250417e-02  9.8446507074767584e-02  9.8574645367348362e-02  8.4655470475151789e-02  0.0000000000000000e+00  0.0000000000000000e+00  4.1204264220773505e-03  8.2408551856558935e-03  1.2361288660958631e-02  1.6481729276476335e-02  2.0602179550220166e-02  2.4722642123685773e-02  2.8843119799731854e-02  3.2963615585869528e-02  3.7084132744876118e-02  4.1204674855232312e-02  4.5325245884694700e-02  4.9445850281443667e-02  5.3566493088817904e-02  5.7687180091830756e-02  6.1807918006722674e-02  6.5928714729076771e-02  7.0049579661994529e-02  7.4170524154089534e-02  7.8291562088105185e-02  8.2412710673020972e-02  8.6533991480944691e-02  9.0655431501952780e-02  9.4777061496166923e-02  9.8898889039776561e-02  1.0302067953044128e-01  1.0714041691917849e-01  1.1124437471197063e-01  1.1524753292147476e-01  1.1865882727228089e-01  1.1881200506138972e-01  1.0203402761941219e-01  0.0000000000000000e+00  0.0000000000000000e+00  4.7613374384091528e-03  9.5226776211474306e-03  1.4284023325018552e-02  1.9045377392616646e-02  2.3806742767379412e-02  2.8568122531389607e-02  3.3329519947119988e-02  3.8090938504587148e-02  4.2852381975758566e-02  4.7613854478578375e-02  5.2375360553685892e-02  5.7136905257855690e-02  6.1898494279469064e-02  6.6660134083031855e-02  7.1421832092001827e-02  7.6183596922099431e-02  8.0945438680934872e-02  8.5707369354111093e-02  9.0469403302285131e-02  9.5231557893980814e-02  9.9993854263930357e-02  1.0475631784385819e-01  1.0951897538518494e-01  1.1428182217036023e-01  1.1904456656412790e-01  1.2380484824794487e-01  1.2854676220621303e-01  1.3317201057865852e-01  1.3711310906956312e-01  1.3728917954275083e-01  1.1790114793374402e-01  0.0000000000000000e+00  0.0000000000000000e+00  5.3412105602216120e-03  1.0682424235281514e-02  1.6023644175414329e-02  2.1364873602451442e-02  2.6706115847676831e-02  3.2047374392286318e-02  3.7388652911553792e-02  4.2729955324031482e-02  4.8071285847418842e-02  5.3412649063149117e-02  5.8754049992285180e-02  6.4095494186020618e-02  6.9436987834974678e-02  7.4778537902573980e-02  8.0120152289124974e-02  8.5461840034627229e-02  9.0803611569745368e-02  9.6145479025121452e-02  1.0148745660803811e-01  1.0682956104723554e-01  1.1217181205614059e-01  1.1751423236770331e-01  1.2285684360328493e-01  1.2819962843051544e-01  1.3354224273319806e-01  1.3888201572170855e-01  1.4420107645242974e-01  1.4938912574141799e-01  1.5380955732508370e-01  1.5400637838929593e-01  1.3225696947222126e-01  0.0000000000000000e+00  0.0000000000000000e+00  5.8600454175546336e-03  1.1720094285209580e-02  1.7580150090587669e-02  2.3440216397077725e-02  2.9300296883555017e-02  3.5160395386408055e-02  4.1020515944814810e-02  4.6880662850373463e-02  5.2740840702409537e-02  5.8601054470560576e-02  6.4461309566589728e-02  7.0321611927799552e-02  7.6181968114898066e-02  8.2042385427670644e-02  8.7902872042242203e-02  9.3763437173882108e-02  9.9624091268842654e-02  1.0548484622691888e-01  1.1134571565180293e-01  1.1720671511361197e-01  1.2306786234971744e-01  1.2892917689590433e-01  1.3479067504318915e-01  1.4065232774328712e-01  1.4651374431564090e-01  1.5237197821474774e-01  1.5820740421949309e-01  1.6389899321543827e-01  1.6874830361072307e-01  1.6896372305729540e-01  1.4510156686114001e-01  0.0000000000000000e+00  0.0000000000000000e+00  6.3178416755477257e-03  1.2635687099069186e-02  1.8953540057472549e-02  2.5271404416137414e-02  3.1589284159678911e-02  3.7907183434607292e-02  4.4225106594619416e-02  5.0543058249350105e-02  5.6861043317529350e-02  6.3179067085628135e-02  6.9497135273229607e-02  7.5815254106509633e-02  8.2133430401310853e-02  8.8451671657276895e-02  9.4769986164243078e-02  1.0108838312131341e-01  1.0740687276740801e-01  1.1372546651885809e-01  1.2004417710357508e-01  1.2636301866749955e-01  1.3268200676864539e-01  1.3900115771419735e-01  1.4532048283793828e-01  1.5163994287388213e-01  1.5795910688652962e-01  1.6427478698647524e-01  1.7056581353599604e-01  1.7670169476964551e-01  1.8192943394654704e-01  1.8216128762337905e-01  1.5643498357378041e-01  0.0000000000000000e+00  0.0000000000000000e+00  6.7145990365962503e-03  1.3429202080217485e-02  2.0143813177636447e-02  2.6858436455584004e-02  3.3573076161892680e-02  4.0287736708057506e-02  4.7002422713718878e-02  5.3717139053594321e-02  6.0431890907404195e-02  6.7146683813341893e-02  7.3861523725612943e-02  8.0576417076476073e-02  8.7291370843013444e-02  9.4006392618447579e-02  1.0072149068706988e-01  1.0743667410053208e-01  1.1415195275104040e-01  1.2086733743337544e-01  1.2758283988167274e-01  1.3429847275407331e-01  1.4101424947880437e-01  1.4773018339601990e-01  1.5444628154655721e-01  1.6116249613381026e-01  1.6787836217109925e-01  1.7459048413741476e-01  1.8127635619947474e-01  1.8779728846968155e-01  1.9335300578342529e-01  1.9359911920636941e-01  1.6625724640097284e-01  0.0000000000000000e+00  0.0000000000000000e+00  7.0503172418062560e-03  1.4100638710027534e-02  2.1150968671178591e-02  2.8201311472288913e-02  3.5251671581941854e-02  4.2302053632233001e-02  4.9352462461917580e-02  5.6402903160974446e-02  6.3453381116744048e-02  7.0503902061688550e-02  7.7554472122644116e-02  8.4605097871159274e-02  9.1655786374082643e-02  9.8706545242895627e-02  1.0575738267926557e-01  1.1280830751275771e-01  1.1985932922434869e-01  1.2691045794603359e-01  1.3396170442175037e-01  1.4101307990398951e-01  1.4806459590276569e-01  1.5511626320859218e-01  1.6216808533616595e-01  1.6922000761105435e-01  1.7627153690233813e-01  1.8331910305908958e-01  1.9033907103683098e-01  1.9718581564663590e-01  2.0301905822015101e-01  2.0327724876578654e-01  1.7456837255345814e-01  0.0000000000000000e+00  0.0000000000000000e+00  7.3249960718588239e-03  1.4649996549482298e-02  2.1975005878770458e-02  2.9300028586067877e-02  3.6625069318801440e-02  4.3950132886563451e-02  5.1275224302691345e-02  5.8600348826297860e-02  6.5925512004563216e-02  7.3250719714895107e-02  8.0575978206272242e-02  8.7901294138675590e-02  9.5226674618932791e-02  1.0255212723049438e-01  1.0987766005353754e-01  1.1720328167025686e-01  1.2452900114812576e-01  1.3185482799116177e-01  1.3918077204541712e-01  1.4650684333616421e-01  1.5383305175837006e-01  1.6115940603363776e-01  1.6848590691301957e-01  1.7581249436747604e-01  1.8313865270327509e-01  1.9046066955692334e-01  1.9775398680245504e-01  2.0486730574630330e-01  2.1092761820172598e-01  2.1119569709546374e-01  1.8136837340335027e-01  0.0000000000000000e+00  0.0000000000000000e+00  7.5386353474159208e-03  1.5077275239843901e-02  2.2615924262290057e-02  3.0154587079798647e-02  3.7693268477568063e-02  4.5231973401100460e-02  5.2770706996251887e-02  6.0309474648906229e-02  6.7848282023798834e-02  7.5387135101740124e-02  8.2926040214114025e-02  9.0465004073034733e-02  9.8004033794871881e-02  1.0554313691399600e-01  1.1308232138247384e-01  1.2062159555002876e-01  1.2816096811685052e-01  1.3570044804977127e-01  1.4324004444972122e-01  1.5077976635142715e-01  1.5831962238177269e-01  1.6585961968381296e-01  1.7339975695458915e-01  1.8093997018308119e-01  1.8847972641106292e-01  1.9601520304581230e-01  2.0352112444709028e-01  2.1084177961084463e-01  2.1707870433648510e-01  2.1735447828689233e-01  1.8665725656589882e-01  0.0000000000000000e+00  0.0000000000000000e+00  7.6912349292078928e-03  1.5382474502691612e-02  2.3073723404524321e-02  3.0764986398328292e-02  3.8456268366899915e-02  4.6147574351551875e-02  5.3838909590898099e-02  6.1530279558632835e-02  6.9221689999617794e-02  7.6913146963266663e-02  8.4604656832793404e-02  9.2296226348337160e-02  9.9987862621273946e-02  1.0767957313614561e-01  1.1537136573556721e-01  1.2306324858221582e-01  1.3075523009059867e-01  1.3844731881982764e-01  1.4613952331696750e-01  1.5383185189489051e-01  1.6152431227483025e-01  1.6921691049611501e-01  1.7690964384648830e-01  1.8460244557169908e-01  1.9229477052986349e-01  1.9998271758163536e-01  2.0764049878330104e-01  2.1510925166592926e-01  2.2147232927474755e-01  2.2175360178939671e-01  1.9043502710389729e-01  0.0000000000000000e+00  0.0000000000000000e+00  7.7827947179373884e-03  1.5565594139609765e-02  2.3348403008391617e-02  3.1131226146830660e-02  3.8914068495929197e-02  4.6696935153944123e-02  5.4479831414341776e-02  6.2262762802354626e-02  7.0045735109320925e-02  7.7828754423642885e-02  8.5611827156740816e-02  9.3394960061805213e-02  1.0117816024242615e-01  1.0896143514730938e-01  1.1674479254626281e-01  1.2452824048150274e-01  1.3231178718715189e-01  1.4009544096872240e-01  1.4787921003330734e-01  1.5566310225634855e-01  1.6344712481751394e-01  1.7123128310533364e-01  1.7901557358669121e-01  1.8679992790228070e-01  1.9458379365767295e-01  2.0236322265647269e-01  2.1011211964805154e-01  2.1766973134931264e-01  2.2410850118938808e-01  2.2439307364980007e-01  1.9270168823782355e-01  0.0000000000000000e+00  0.0000000000000000e+00  7.8133146541177530e-03  1.5626634031771690e-02  2.3439962896078127e-02  3.1253306089187180e-02  3.9066668571441490e-02  4.6880055459985304e-02  5.4693472066431263e-02  6.2506923932994396e-02  7.0320416866232693e-02  7.8133956967175011e-02  8.5947550656154267e-02  9.3761204690076372e-02  1.0157492616913227e-01  1.0938872252909042e-01  1.1720260151430596e-01  1.2501657112548767e-01  1.3283063953517277e-01  1.4064481496291192e-01  1.4845910550130034e-01  1.5627351887938937e-01  1.6408806209680005e-01  1.7190274032721417e-01  1.7971754976815066e-01  1.8753242153211952e-01  1.9534680081660283e-01  2.0315672375089192e-01  2.1093599266052898e-01  2.1852322400095212e-01  2.2498722466788665e-01  2.2527289724174268e-01  1.9345724175766529e-01  0.0000000000000000e+00  0.0000000000000000e+00  7.7827947179373823e-03  1.5565594139609756e-02  2.3348403008391624e-02  3.1131226146830657e-02  3.8914068495929231e-02  4.6696935153944151e-02  5.4479831414341928e-02  6.2262762802354661e-02  7.0045735109321050e-02  7.7828754423643023e-02  8.5611827156740941e-02  9.3394960061805199e-02  1.0117816024242605e-01  1.0896143514730933e-01  1.1674479254626294e-01  1.2452824048150281e-01  1.3231178718715178e-01  1.4009544096872231e-01  1.4787921003330731e-01  1.5566310225634830e-01  1.6344712481751383e-01  1.7123128310533342e-01  1.7901557358669101e-01  1.8679992790228087e-01  1.9458379365767292e-01  2.0236322265647236e-01  2.1011211964805121e-01  2.1766973134931220e-01  2.2410850118938752e-01  2.2439307364979982e-01  1.9270168823782358e-01  0.0000000000000000e+00  0.0000000000000000e+00  7.6912349292078963e-03  1.5382474502691623e-02  2.3073723404524335e-02  3.0764986398328316e-02  3.8456268366899950e-02  4.6147574351551979e-02  5.3838909590898230e-02  6.1530279558633022e-02  6.9221689999618016e-02  7.6913146963266857e-02  8.4604656832793515e-02  9.2296226348337188e-02  9.9987862621273918e-02  1.0767957313614557e-01  1.1537136573556719e-01  1.2306324858221580e-01  1.3075523009059870e-01  1.3844731881982766e-01  1.4613952331696756e-01  1.5383185189489046e-01  1.6152431227483016e-01  1.6921691049611487e-01  1.7690964384648816e-01  1.8460244557169900e-01  1.9229477052986332e-01  1.9998271758163508e-01  2.0764049878330074e-01  2.1510925166592867e-01  2.2147232927474697e-01  2.2175360178939643e-01  1.9043502710389715e-01  0.0000000000000000e+00  0.0000000000000000e+00  7.5386353474159373e-03  1.5077275239843929e-02  2.2615924262290109e-02  3.0154587079798706e-02  3.7693268477568140e-02  4.5231973401100613e-02  5.2770706996252068e-02  6.0309474648906521e-02  6.7848282023799361e-02  7.5387135101740346e-02  8.2926040214114122e-02  9.0465004073034830e-02  9.8004033794871881e-02  1.0554313691399603e-01  1.1308232138247364e-01  1.2062159555002859e-01  1.2816096811685063e-01  1.3570044804977141e-01  1.4324004444972124e-01  1.5077976635142742e-01  1.5831962238177280e-01  1.6585961968381280e-01  1.7339975695458909e-01  1.8093997018308119e-01  1.8847972641106289e-01  1.9601520304581199e-01  2.0352112444708992e-01  2.1084177961084422e-01  2.1707870433648477e-01  2.1735447828689217e-01  1.8665725656589863e-01  0.0000000000000000e+00  0.0000000000000000e+00  7.3249960718588490e-03  1.4649996549482344e-02  2.1975005878770541e-02  2.9300028586067971e-02  3.6625069318801565e-02  4.3950132886563617e-02  5.1275224302691526e-02  5.8600348826298089e-02  6.5925512004563494e-02  7.3250719714895357e-02  8.0575978206272436e-02  8.7901294138675701e-02  9.5226674618932902e-02  1.0255212723049442e-01  1.0987766005353752e-01  1.1720328167025687e-01  1.2452900114812590e-01  1.3185482799116194e-01  1.3918077204541732e-01  1.4650684333616443e-01  1.5383305175837028e-01  1.6115940603363796e-01  1.6848590691301976e-01  1.7581249436747609e-01  1.8313865270327512e-01  1.9046066955692323e-01  1.9775398680245473e-01  2.0486730574630302e-01  2.1092761820172584e-01  2.1119569709546360e-01  1.8136837340335016e-01  0.0000000000000000e+00  0.0000000000000000e+00  7.0503172418062802e-03  1.4100638710027593e-02  2.1150968671178695e-02  2.8201311472289069e-02  3.5251671581942028e-02  4.2302053632233168e-02  4.9352462461917768e-02  5.6402903160974578e-02  6.3453381116744187e-02  7.0503902061688856e-02  7.7554472122644366e-02  8.4605097871159413e-02  9.1655786374082754e-02  9.8706545242895655e-02  1.0575738267926572e-01  1.1280830751275790e-01  1.1985932922434885e-01  1.2691045794603376e-01  1.3396170442175057e-01  1.4101307990398967e-01  1.4806459590276602e-01  1.5511626320859273e-01  1.6216808533616647e-01  1.6922000761105460e-01  1.7627153690233838e-01  1.8331910305908963e-01  1.9033907103683104e-01  1.9718581564663590e-01  2.0301905822015096e-01  2.0327724876578659e-01  1.7456837255345817e-01  0.0000000000000000e+00  0.0000000000000000e+00  6.7145990365962728e-03  1.3429202080217549e-02  2.0143813177636537e-02  2.6858436455584150e-02  3.3573076161892847e-02  4.0287736708057659e-02  4.7002422713719010e-02  5.3717139053594459e-02  6.0431890907404369e-02  6.7146683813342031e-02  7.3861523725613082e-02  8.0576417076476226e-02  8.7291370843013597e-02  9.4006392618447676e-02  1.0072149068707001e-01  1.0743667410053219e-01  1.1415195275104051e-01  1.2086733743337574e-01  1.2758283988167307e-01  1.3429847275407369e-01  1.4101424947880484e-01  1.4773018339602029e-01  1.5444628154655762e-01  1.6116249613381062e-01  1.6787836217109961e-01  1.7459048413741499e-01  1.8127635619947477e-01  1.8779728846968161e-01  1.9335300578342535e-01  1.9359911920636949e-01  1.6625724640097289e-01  0.0000000000000000e+00  0.0000000000000000e+00  6.3178416755477517e-03  1.2635687099069256e-02  1.8953540057472643e-02  2.5271404416137518e-02  3.1589284159679050e-02  3.7907183434607430e-02  4.4225106594619507e-02  5.0543058249350188e-02  5.6861043317529489e-02  6.3179067085628177e-02  6.9497135273229607e-02  7.5815254106509786e-02  8.2133430401311047e-02  8.8451671657277034e-02  9.4769986164243147e-02  1.0108838312131359e-01  1.0740687276740836e-01  1.1372546651885861e-01  1.2004417710357561e-01  1.2636301866750013e-01  1.3268200676864597e-01  1.3900115771419777e-01  1.4532048283793866e-01  1.5163994287388263e-01  1.5795910688653003e-01  1.6427478698647560e-01  1.7056581353599637e-01  1.7670169476964565e-01  1.8192943394654715e-01  1.8216128762337921e-01  1.5643498357378041e-01  0.0000000000000000e+00  0.0000000000000000e+00  5.8600454175546561e-03  1.1720094285209631e-02  1.7580150090587748e-02  2.3440216397077815e-02  2.9300296883555101e-02  3.5160395386408139e-02  4.1020515944814880e-02  4.6880662850373532e-02  5.2740840702409600e-02  5.8601054470560611e-02  6.4461309566589742e-02  7.0321611927799649e-02  7.6181968114898205e-02  8.2042385427670839e-02  8.7902872042242411e-02  9.3763437173882372e-02  9.9624091268842974e-02  1.0548484622691923e-01  1.1134571565180340e-01  1.1720671511361246e-01  1.2306786234971787e-01  1.2892917689590477e-01  1.3479067504318959e-01  1.4065232774328765e-01  1.4651374431564140e-01  1.5237197821474821e-01  1.5820740421949356e-01  1.6389899321543860e-01  1.6874830361072315e-01  1.6896372305729568e-01  1.4510156686113998e-01  0.0000000000000000e+00  0.0000000000000000e+00  5.3412105602216294e-03  1.0682424235281547e-02  1.6023644175414381e-0