<?xml version="1.0"?>
<VTKFile type="UnstructuredGrid"  version="0.1"  >
<UnstructuredGrid>
<Piece  NumberOfPoints="8321" NumberOfCells="16384">
<Points>
<DataArray  type="Float64"  NumberOfComponents="3"  format="ascii">0 0 0  0.03125 0 0  0.0625 0 0  0.09375 0 0  0.125 0 0  0.15625 0 0  0.1875 0 0  0.21875 0 0  0.25 0 0  0.28125 0 0  0.3125 0 0  0.34375 0 0  0.375 0 0  0.40625 0 0  0.4375 0 0  0.46875 0 0  0.5 0 0  0.53125 0 0  0.5625 0 0  0.59375 0 0  0.625 0 0  0.65625 0 0  0.6875 0 0  0.71875 0 0  0.75 0 0  0.78125 0 0  0.8125 0 0  0.84375 0 0  0.875 0 0  0.90625 0 0  0.9375 0 0  0.96875 0 0  1 0 0  0 0.03125 0  0.03125 0.03125 0  0.0625 0.03125 0  0.09375 0.03125 0  0.125 0.03125 0  0.15625 0.03125 0  0.1875 0.03125 0  0.21875 0.03125 0  0.25 0.03125 0  0.28125 0.03125 0  0.3125 0.03125 0  0.34375 0.03125 0  0.375 0.03125 0  0.40625 0.03125 0  0.4375 0.03125 0  0.46875 0.03125 0  0.5 0.03125 0  0.53125 0.03125 0  0.5625 0.03125 0  0.59375 0.03125 0  0.625 0.03125 0  0.65625 0.03125 0  0.6875 0.03125 0  0.71875 0.03125 0  0.75 0.03125 0  0.78125 0.03125 0  0.8125 0.03125 0  0.84375 0.03125 0  0.875 0.03125 0  0.90625 0.03125 0  0.9375 0.03125 0  0.96875 0.03125 0  1 0.03125 0  0 0.0625 0  0.03125 0.0625 0  0.0625 0.0625 0  0.09375 0.0625 0  0.125 0.0625 0  0.15625 0.0625 0  0.1875 0.0625 0  0.21875 0.0625 0  0.25 0.0625 0  0.28125 0.0625 0  0.3125 0.0625 0  0.34375 0.0625 0  0.375 0.0625 0  0.40625 0.0625 0  0.4375 0.0625 0  0.46875 0.0625 0  0.5 0.0625 0  0.53125 0.0625 0  0.5625 0.0625 0  0.59375 0.0625 0  0.625 0.0625 0  0.65625 0.0625 0  0.6875 0.0625 0  0.71875 0.0625 0  0.75 0.0625 0  0.78125 0.0625 0  0.8125 0.0625 0  0.84375 0.0625 0  0.875 0.0625 0  0.90625 0.0625 0  0.9375 0.0625 0  0.96875 0.0625 0  1 0.0625 0  0 0.09375 0  0.03125 0.09375 0  0.0625 0.09375 0  0.09375 0.09375 0  0.125 0.09375 0  0.15625 0.09375 0  0.1875 0.09375 0  0.21875 0.09375 0  0.25 0.09375 0  0.28125 0.09375 0  0.3125 0.09375 0  0.34375 0.09375 0  0.375 0.09375 0  0.40625 0.09375 0  0.4375 0.09375 0  0.46875 0.09375 0  0.5 0.09375 0  0.53125 0.09375 0  0.5625 0.09375 0  0.59375 0.09375 0  0.625 0.09375 0  0.65625 0.09375 0  0.6875 0.09375 0  0.71875 0.09375 0  0.75 0.09375 0  0.78125 0.09375 0  0.8125 0.09375 0  0.84375 0.09375 0  0.875 0.09375 0  0.90625 0.09375 0  0.9375 0.09375 0  0.96875 0.09375 0  1 0.09375 0  0 0.125 0  0.03125 0.125 0  0.0625 0.125 0  0.09375 0.125 0  0.125 0.125 0  0.15625 0.125 0  0.1875 0.125 0  0.21875 0.125 0  0.25 0.125 0  0.28125 0.125 0  0.3125 0.125 0  0.34375 0.125 0  0.375 0.125 0  0.40625 0.125 0  0.4375 0.125 0  0.46875 0.125 0  0.5 0.125 0  0.53125 0.125 0  0.5625 0.125 0  0.59375 0.125 0  0.625 0.125 0  0.65625 0.125 0  0.6875 0.125 0  0.71875 0.125 0  0.75 0.125 0  0.78125 0.125 0  0.8125 0.125 0  0.84375 0.125 0  0.875 0.125 0  0.90625 0.125 0  0.9375 0.125 0  0.96875 0.125 0  1 0.125 0  0 0.15625 0  0.03125 0.15625 0  0.0625 0.15625 0  0.09375 0.15625 0  0.125 0.15625 0  0.15625 0.15625 0  0.1875 0.15625 0  0.21875 0.15625 0  0.25 0.15625 0  0.28125 0.15625 0  0.3125 0.15625 0  0.34375 0.15625 0  0.375 0.15625 0  0.40625 0.15625 0  0.4375 0.15625 0  0.46875 0.15625 0  0.5 0.15625 0  0.53125 0.15625 0  0.5625 0.15625 0  0.59375 0.15625 0  0.625 0.15625 0  0.65625 0.15625 0  0.6875 0.15625 0  0.71875 0.15625 0  0.75 0.15625 0  0.78125 0.15625 0  0.8125 0.15625 0  0.84375 0.15625 0  0.875 0.15625 0  0.90625 0.15625 0  0.9375 0.15625 0  0.96875 0.15625 0  1 0.15625 0  0 0.1875 0  0.03125 0.1875 0  0.0625 0.1875 0  0.09375 0.1875 0  0.125 0.1875 0  0.15625 0.1875 0  0.1875 0.1875 0  0.21875 0.1875 0  0.25 0.1875 0  0.28125 0.1875 0  0.3125 0.1875 0  0.34375 0.1875 0  0.375 0.1875 0  0.40625 0.1875 0  0.4375 0.1875 0  0.46875 0.1875 0  0.5 0.1875 0  0.53125 0.1875 0  0.5625 0.1875 0  0.59375 0.1875 0  0.625 0.1875 0  0.65625 0.1875 0  0.6875 0.1875 0  0.71875 0.1875 0  0.75 0.1875 0  0.78125 0.1875 0  0.8125 0.1875 0  0.84375 0.1875 0  0.875 0.1875 0  0.90625 0.1875 0  0.9375 0.1875 0  0.96875 0.1875 0  1 0.1875 0  0 0.21875 0  0.03125 0.21875 0  0.0625 0.21875 0  0.09375 0.21875 0  0.125 0.21875 0  0.15625 0.21875 0  0.1875 0.21875 0  0.21875 0.21875 0  0.25 0.21875 0  0.28125 0.21875 0  0.3125 0.21875 0  0.34375 0.21875 0  0.375 0.21875 0  0.40625 0.21875 0  0.4375 0.21875 0  0.46875 0.21875 0  0.5 0.21875 0  0.53125 0.21875 0  0.5625 0.21875 0  0.59375 0.21875 0  0.625 0.21875 0  0.65625 0.21875 0  0.6875 0.21875 0  0.71875 0.21875 0  0.75 0.21875 0  0.78125 0.21875 0  0.8125 0.21875 0  0.84375 0.21875 0  0.875 0.21875 0  0.90625 0.21875 0  0.9375 0.21875 0  0.96875 0.21875 0  1 0.21875 0  0 0.25 0  0.03125 0.25 0  0.0625 0.25 0  0.09375 0.25 0  0.125 0.25 0  0.15625 0.25 0  0.1875 0.25 0  0.21875 0.25 0  0.25 0.25 0  0.28125 0.25 0  0.3125 0.25 0  0.34375 0.25 0  0.375 0.25 0  0.40625 0.25 0  0.4375 0.25 0  0.46875 0.25 0  0.5 0.25 0  0.53125 0.25 0  0.5625 0.25 0  0.59375 0.25 0  0.625 0.25 0  0.65625 0.25 0  0.6875 0.25 0  0.71875 0.25 0  0.75 0.25 0  0.78125 0.25 0  0.8125 0.25 0  0.84375 0.25 0  0.875 0.25 0  0.90625 0.25 0  0.9375 0.25 0  0.96875 0.25 0  1 0.25 0  0 0.28125 0  0.03125 0.28125 0  0.0625 0.28125 0  0.09375 0.28125 0  0.125 0.28125 0  0.15625 0.28125 0  0.1875 0.28125 0  0.21875 0.28125 0  0.25 0.28125 0  0.28125 0.28125 0  0.3125 0.28125 0  0.34375 0.28125 0  0.375 0.28125 0  0.40625 0.28125 0  0.4375 0.28125 0  0.46875 0.28125 0  0.5 0.28125 0  0.53125 0.28125 0  0.5625 0.28125 0  0.59375 0.28125 0  0.625 0.28125 0  0.65625 0.28125 0  0.6875 0.28125 0  0.71875 0.28125 0  0.75 0.28125 0  0.78125 0.28125 0  0.8125 0.28125 0  0.84375 0.28125 0  0.875 0.28125 0  0.90625 0.28125 0  0.9375 0.28125 0  0.96875 0.28125 0  1 0.28125 0  0 0.3125 0  0.03125 0.3125 0  0.0625 0.3125 0  0.09375 0.3125 0  0.125 0.3125 0  0.15625 0.3125 0  0.1875 0.3125 0  0.21875 0.3125 0  0.25 0.3125 0  0.28125 0.3125 0  0.3125 0.3125 0  0.34375 0.3125 0  0.375 0.3125 0  0.40625 0.3125 0  0.4375 0.3125 0  0.46875 0.3125 0  0.5 0.3125 0  0.53125 0.3125 0  0.5625 0.3125 0  0.59375 0.3125 0  0.625 0.3125 0  0.65625 0.3125 0  0.6875 0.3125 0  0.71875 0.3125 0  0.75 0.3125 0  0.78125 0.3125 0  0.8125 0.3125 0  0.84375 0.3125 0  0.875 0.3125 0  0.90625 0.3125 0  0.9375 0.3125 0  0.96875 0.3125 0  1 0.3125 0  0 0.34375 0  0.03125 0.34375 0  0.0625 0.34375 0  0.09375 0.34375 0  0.125 0.34375 0  0.15625 0.34375 0  0.1875 0.34375 0  0.21875 0.34375 0  0.25 0.34375 0  0.28125 0.34375 0  0.3125 0.34375 0  0.34375 0.34375 0  0.375 0.34375 0  0.40625 0.34375 0  0.4375 0.34375 0  0.46875 0.34375 0  0.5 0.34375 0  0.53125 0.34375 0  0.5625 0.34375 0  0.59375 0.34375 0  0.625 0.34375 0  0.65625 0.34375 0  0.6875 0.34375 0  0.71875 0.34375 0  0.75 0.34375 0  0.78125 0.34375 0  0.8125 0.34375 0  0.84375 0.34375 0  0.875 0.34375 0  0.90625 0.34375 0  0.9375 0.34375 0  0.96875 0.34375 0  1 0.34375 0  0 0.375 0  0.03125 0.375 0  0.0625 0.375 0  0.09375 0.375 0  0.125 0.375 0  0.15625 0.375 0  0.1875 0.375 0  0.21875 0.375 0  0.25 0.375 0  0.28125 0.375 0  0.3125 0.375 0  0.34375 0.375 0  0.375 0.375 0  0.40625 0.375 0  0.4375 0.375 0  0.46875 0.375 0  0.5 0.375 0  0.53125 0.375 0  0.5625 0.375 0  0.59375 0.375 0  0.625 0.375 0  0.65625 0.375 0  0.6875 0.375 0  0.71875 0.375 0  0.75 0.375 0  0.78125 0.375 0  0.8125 0.375 0  0.84375 0.375 0  0.875 0.375 0  0.90625 0.375 0  0.9375 0.375 0  0.96875 0.375 0  1 0.375 0  0 0.40625 0  0.03125 0.40625 0  0.0625 0.40625 0  0.09375 0.40625 0  0.125 0.40625 0  0.15625 0.40625 0  0.1875 0.40625 0  0.21875 0.40625 0  0.25 0.40625 0  0.28125 0.40625 0  0.3125 0.40625 0  0.34375 0.40625 0  0.375 0.40625 0  0.40625 0.40625 0  0.4375 0.40625 0  0.46875 0.40625 0  0.5 0.40625 0  0.53125 0.40625 0  0.5625 0.40625 0  0.59375 0.40625 0  0.625 0.40625 0  0.65625 0.40625 0  0.6875 0.40625 0  0.71875 0.40625 0  0.75 0.40625 0  0.78125 0.40625 0  0.8125 0.40625 0  0.84375 0.40625 0  0.875 0.40625 0  0.90625 0.40625 0  0.9375 0.40625 0  0.96875 0.40625 0  1 0.40625 0  0 0.4375 0  0.03125 0.4375 0  0.0625 0.4375 0  0.09375 0.4375 0  0.125 0.4375 0  0.15625 0.4375 0  0.1875 0.4375 0  0.21875 0.4375 0  0.25 0.4375 0  0.28125 0.4375 0  0.3125 0.4375 0  0.34375 0.4375 0  0.375 0.4375 0  0.40625 0.4375 0  0.4375 0.4375 0  0.46875 0.4375 0  0.5 0.4375 0  0.53125 0.4375 0  0.5625 0.4375 0  0.59375 0.4375 0  0.625 0.4375 0  0.65625 0.4375 0  0.6875 0.4375 0  0.71875 0.4375 0  0.75 0.4375 0  0.78125 0.4375 0  0.8125 0.4375 0  0.84375 0.4375 0  0.875 0.4375 0  0.90625 0.4375 0  0.9375 0.4375 0  0.96875 0.4375 0  1 0.4375 0  0 0.46875 0  0.03125 0.46875 0  0.0625 0.46875 0  0.09375 0.46875 0  0.125 0.46875 0  0.15625 0.46875 0  0.1875 0.46875 0  0.21875 0.46875 0  0.25 0.46875 0  0.28125 0.46875 0  0.3125 0.46875 0  0.34375 0.46875 0  0.375 0.46875 0  0.40625 0.46875 0  0.4375 0.46875 0  0.46875 0.46875 0  0.5 0.46875 0  0.53125 0.46875 0  0.5625 0.46875 0  0.59375 0.46875 0  0.625 0.46875 0  0.65625 0.46875 0  0.6875 0.46875 0  0.71875 0.46875 0  0.75 0.46875 0  0.78125 0.46875 0  0.8125 0.46875 0  0.84375 0.46875 0  0.875 0.46875 0  0.90625 0.46875 0  0.9375 0.46875 0  0.96875 0.46875 0  1 0.46875 0  0 0.5 0  0.03125 0.5 0  0.0625 0.5 0  0.09375 0.5 0  0.125 0.5 0  0.15625 0.5 0  0.1875 0.5 0  0.21875 0.5 0  0.25 0.5 0  0.28125 0.5 0  0.3125 0.5 0  0.34375 0.5 0  0.375 0.5 0  0.40625 0.5 0  0.4375 0.5 0  0.46875 0.5 0  0.5 0.5 0  0.53125 0.5 0  0.5625 0.5 0  0.59375 0.5 0  0.625 0.5 0  0.65625 0.5 0  0.6875 0.5 0  0.71875 0.5 0  0.75 0.5 0  0.78125 0.5 0  0.8125 0.5 0  0.84375 0.5 0  0.875 0.5 0  0.90625 0.5 0  0.9375 0.5 0  0.96875 0.5 0  1 0.5 0  0 0.53125 0  0.03125 0.53125 0  0.0625 0.53125 0  0.09375 0.53125 0  0.125 0.53125 0  0.15625 0.53125 0  0.1875 0.53125 0  0.21875 0.53125 0  0.25 0.53125 0  0.28125 0.53125 0  0.3125 0.53125 0  0.34375 0.53125 0  0.375 0.53125 0  0.40625 0.53125 0  0.4375 0.53125 0  0.46875 0.53125 0  0.5 0.53125 0  0.53125 0.53125 0  0.5625 0.53125 0  0.59375 0.53125 0  0.625 0.53125 0  0.65625 0.53125 0  0.6875 0.53125 0  0.71875 0.53125 0  0.75 0.53125 0  0.78125 0.53
[...]
<PointData  Scalars="dual weights"> 
<DataArray  type="Float64"  Name="dual weights"  format="ascii">2.2176400525002202e-08  2.2377694687485486e-08  2.2988248301988256e-08  2.4028569138810917e-08  2.5534564511962638e-08  2.7560442893476259e-08  3.0183521246689158e-08  3.3512036297417257e-08  3.7698093547501991e-08  4.2960072275898264e-08  4.9623842263038575e-08  5.8205120129251486e-08  6.9593965100281395e-08  8.5544459313993233e-08  1.1038207060487109e-07  1.6075854320199782e-07  2.6761557274389450e-07  3.4316615365684577e-07  3.4026792078126046e-07  3.3679444015453666e-07  3.3479073383777060e-07  3.3390045453070441e-07  3.3388389779301794e-07  3.3465940107854532e-07  3.3627084868541841e-07  3.3888380725817439e-07  3.4281202704023992e-07  3.4858695303505810e-07  3.5711472272864588e-07  3.7006096425325859e-07  3.9095255995413858e-07  4.3080277908078586e-07  4.2856075858839246e-07  2.1985033208409527e-08  2.2196958066039930e-08  2.2839435627224807e-08  2.3933170786902672e-08  2.5514721582565982e-08  2.7639845005868557e-08  3.0388902051236358e-08  3.3875497602866132e-08  3.8260707055518692e-08  4.3777674129891972e-08  5.0776880333090704e-08  5.9816270113941732e-08  7.1860061437696817e-08  8.8783678595018245e-08  1.1494769084330267e-07  1.6293065333137255e-07  2.6935214430167085e-07  3.4030074213584660e-07  3.3054167200874596e-07  3.2548518368334042e-07  3.2279100024793207e-07  3.2153801885278008e-07  3.2134963556558635e-07  3.2209031259307004e-07  3.2377506366590023e-07  3.2654829727158448e-07  3.3070121671179104e-07  3.3673355072096574e-07  3.4550398180342897e-07  3.5862884773489487e-07  3.7984817337294315e-07  4.2150607893485013e-07  4.3080277908078221e-07  2.1417213073779287e-08  2.1660772115452461e-08  2.2397683352030196e-08  2.3647673046761648e-08  2.5446935203331862e-08  2.7852954173677995e-08  3.0951477418409580e-08  3.4866801307639147e-08  3.9777947589760904e-08  4.5945816276695774e-08  5.3761447000273579e-08  6.3836469917084687e-08  7.7180926011708197e-08  9.5559492574191618e-08  1.2212511659905790e-07  1.6137072217319880e-07  2.5434101451867016e-07  3.2102658624631344e-07  3.1590802752303317e-07  3.1341755960526756e-07  3.1189495581334110e-07  3.1120470209874005e-07  3.1121846970244978e-07  3.1188890235747587e-07  3.1325176578395877e-07  3.1542871122983699e-07  3.1864345712411017e-07  3.2326101936291877e-07  3.2987317380328941e-07  3.3948903220022415e-07  3.5399140296046264e-07  3.7984817337294362e-07  3.9095255995413037e-07  2.0491404400355593e-08  2.0786901121590866e-08  2.1676973675171184e-08  2.3174763435056852e-08  2.5309180974807397e-08  2.8133061841580359e-08  3.1732342830733412e-08  3.6237123725539887e-08  4.1837160689063345e-08  4.8805992500909475e-08  5.7540109150189042e-08  6.8622161068106153e-08  8.2915347875205144e-08  1.0166360436797689e-07  1.2642899981516463e-07  1.5846976670014339e-07  2.4658164469716133e-07  3.1392784325769724e-07  3.1023511877069784e-07  3.0895736885657966e-07  3.0812948355605047e-07  3.0777495092497217e-07  3.0787652155469340e-07  3.0843301806665303e-07  3.0948856185715512e-07  3.1114614952214037e-07  3.1358233727340142e-07  3.1707236427741067e-07  3.2203715603188703e-07  3.2913369563624318e-07  3.3948903220021526e-07  3.5862884773488391e-07  3.7006096425324535e-07  1.9237170096765881e-08  1.9603980982481706e-08  2.0700353423552086e-08  2.2520640978121144e-08  2.5072594176631974e-08  2.8392528847435430e-08  3.2556832765261655e-08  3.7691261270647266e-08  4.3981447942078497e-08  5.1687700222674721e-08  6.1165699357987424e-08  7.2890713781753725e-08  8.7469965519192942e-08  1.0559124846826916e-07  1.2780921059944087e-07  1.5439646143013490e-07  2.4098048085348768e-07  3.1038473332574338e-07  3.0717536298733653e-07  3.0642445168593460e-07  3.0596036795997275e-07  3.0578878058459150e-07  3.0591583470154266e-07  3.0635575474344431e-07  3.0715304829077284e-07  3.0839625294155832e-07  3.1023023923520814e-07  3.1287342499283744e-07  3.1664767519566472e-07  3.2203715603187263e-07  3.2987317380327829e-07  3.4550398180342849e-07  3.5711472272863217e-07  1.7693551493002228e-08  1.8150244415193775e-08  1.9499545482221170e-08  2.1696827513978094e-08  2.4709564684114830e-08  2.8544909990212636e-08  3.3261634148884655e-08  3.8973335226304511e-08  4.5850031772734840e-08  5.4120771429627011e-08  6.4075473318171692e-08  7.6058629049652844e-08  9.0437419788988243e-08  1.0751144506695339e-07  1.2735293761652206e-07  1.5005735867263805e-07  2.3664399177473657e-07  3.0843725717827177e-07  3.0548936057058434e-07  3.0500129635426685e-07  3.0473538965850519e-07  3.0466476100877694e-07  3.0478958631063599e-07  3.0512372846667470e-07  3.0570752508935189e-07  3.0661814907416063e-07  3.0797944381578529e-07  3.0997534021605329e-07  3.1287342499282717e-07  3.1707236427747975e-07  3.2326101936289945e-07  3.3673355072097135e-07  3.4858695303503602e-07  1.5907153805514824e-08  1.6472086388643513e-08  1.8114457543291405e-08  2.0721618977335310e-08  2.4200209745981786e-08  2.8520376756465231e-08  3.3721462745661258e-08  3.9903314456511098e-08  4.7216803154460837e-08  5.5855305065418738e-08  6.6043050892212388e-08  7.8012475970318196e-08  9.1958822433896346e-08  1.0795918032762209e-07  1.2588488560552278e-07  1.4588027141247604e-07  2.3319346682712170e-07  3.0733486123421635e-07  3.0456961507244521e-07  3.0423575112068364e-07  3.0408599062734164e-07  3.0407187215739303e-07  3.0418263234532626e-07  3.0442629322924315e-07  3.0483733073975868e-07  3.0548409960730637e-07  3.0647684937018461e-07  3.0797944381571404e-07  3.1023023923519523e-07  3.1358233727336298e-07  3.1864345712409710e-07  3.3070121671178538e-07  3.4281202704022176e-07  1.3930227288813530e-08  1.4622811009962387e-08  1.6592744216232559e-08  1.9620812391592739e-08  2.3535915844809482e-08  2.8272319917029420e-08  3.3855402274240757e-08  4.0375422636576228e-08  4.7967496475278731e-08  5.6795546820347315e-08  6.7033663930800295e-08  7.8837708884168771e-08  9.2300523972787248e-08  1.0738844798726299e-07  1.2390041646151410e-07  1.4207072516834090e-07  2.3043951998285256e-07  3.0672073533780055e-07  3.0409229102190387e-07  3.0385677655053952e-07  3.0377764493586369e-07  3.0379368794001364e-07  3.0388513717845374e-07  3.0405386286100360e-07  3.0432881643776380e-07  3.0477173212234071e-07  3.0548409960725587e-07  3.0661814907423342e-07  3.0839625294145980e-07  3.1114614952211152e-07  3.1542871122981131e-07  3.2654829727159808e-07  3.3888380725816693e-07  1.1819097263906000e-08  1.2662057681895895e-08  1.4989710138233988e-08  1.8427714217378350e-08  2.2720152516132105e-08  2.7777312921568367e-08  3.3621382254434016e-08  4.0340236107754415e-08  4.8060351170813912e-08  5.6927882140559520e-08  6.7088446237324340e-08  7.8658799480862009e-08  9.1686107142757248e-08  1.0609588280490035e-07  1.2167221811688576e-07  1.3872679773141814e-07  2.2827844843117938e-07  3.0640604274651051e-07  3.0387650257233636e-07  3.0370134270572223e-07  3.0366159306324691e-07  3.0368886823094333e-07  3.0375762773067728e-07  3.0386531014470437e-07  3.0403671256558926e-07  3.0432881643774463e-07  3.0483733073978335e-07  3.0570752508935835e-07  3.0715304829075199e-07  3.0948856185708312e-07  3.1325176578389418e-07  3.2377506366590352e-07  3.3627084868540046e-07  9.6335124086375429e-09  1.0656780122992933e-08  1.3368977212266341e-08  1.7182681643867267e-08  2.1767583404783393e-08  2.7031865568220204e-08  3.3006974908762681e-08  3.9785496651303520e-08  4.7492893698368120e-08  5.6270390178615001e-08  6.6257342978992851e-08  7.7566154649790775e-08  9.0245116696651534e-08  1.0422896676188976e-07  1.1931938147500646e-07  1.3588054431704532e-07  2.2664971539508688e-07  3.0628883470555243e-07  3.0382132032326054e-07  3.0367372325799922e-07  3.0364651694927730e-07  3.0366813227980984e-07  3.0371047182716613e-07  3.0376877250956260e-07  3.0386531014471279e-07  3.0405386286100275e-07  3.0442629322923949e-07  3.0512372846661520e-07  3.0635575474353690e-07  3.0843301806667918e-07  3.1188890235747761e-07  3.2209031259304876e-07  3.3465940107853145e-07  7.4383351411341916e-09  8.6856781894416921e-09  1.1804413681243698e-08  1.5932446425315016e-08  2.0702590645937732e-08  2.6048759802935552e-08  3.2021507653432270e-08  3.8722426786793093e-08  4.6281495262457187e-08  5.4845800341434060e-08  6.4568068619978283e-08  7.5587966795835944e-08  8.7999094593142752e-08  1.0179544306461603e-07  1.1683253299503313e-07  1.3350733407458339e-07  2.2551646309311023e-07  3.0632204147971197e-07  3.0387779627113058e-07  3.0372420122134836e-07  3.0368221152483369e-07  3.0368071991615501e-07  3.0369185291824516e-07  3.0371047182717339e-07  3.0375762773067771e-07  3.0388513717849223e-07  3.0418263234536199e-07  3.0478958631066527e-07  3.0591583470142719e-07  3.0787652155466704e-07  3.1121846970237497e-07  3.2134963556560683e-07  3.3388389779300963e-07  5.3128862855845013e-09  6.8519823371944642e-09  1.0383547117595586e-08  1.4729142374455700e-08  1.9557948830714707e-08  2.4854528456420744e-08  3.0691596142472872e-08  3.7179360811044219e-08  4.4453740552678786e-08  5.2673671989726708e-08  6.2019244924841254e-08  7.2684619175013259e-08  8.4855514674097975e-08  9.8653370583500505e-08  1.1405909750209304e-07  1.3151203395204791e-07  2.2485600596288318e-07  3.0650427676038428e-07  3.0403896172535550e-07  3.0383906149090100e-07  3.0375046970955596e-07  3.0370644286625564e-07  3.0368071991621891e-07  3.0366813227981227e-07  3.0368886823090834e-07  3.0379368794003534e-07  3.0407187215749668e-07  3.0466476100880066e-07  3.0578878058459679e-07  3.0777495092495274e-07  3.1120470209875281e-07  3.2153801885277468e-07  3.3390045453068218e-07  3.3996837096145580e-09  5.3198851930028441e-09  9.2107049957180855e-09  1.3628222613909445e-08  1.8373792386205443e-08  2.3488448600080987e-08  2.9060234370566395e-08  3.5202053661005877e-08  4.2051734351185729e-08  4.9778549029337817e-08  5.8593654222449319e-08  6.8762091290419821e-08  8.0607055463555988e-08  9.4476576378048542e-08  1.1063541980893087e-07  1.2967715034088705e-07  2.2465347509759635e-07  3.0689005682875409e-07  3.0434260066421268e-07  3.0403659273203529e-07  3.0385929539646082e-07  3.0375046970959366e-07  3.0368221152497170e-07  3.0364651694928010e-07  3.0366159306327629e-07  3.0377764493591917e-07  3.0408599062736425e-07  3.0473538965852017e-07  3.0596036795993463e-07  3.0812948355612109e-07  3.1189495581332818e-07  3.2279100024793752e-07  3.3479073383776446e-07  2.2446443396841577e-09  4.4106010446415910e-09  8.3977983251203572e-09  1.2683552649975383e-08  1.7196406267821327e-08  2.2002439844586390e-08  2.7188233577050450e-08  3.2858551808963802e-08  3.9143474932979416e-08  4.6211798780693319e-08  5.4293544514344250e-08  6.3716437231228702e-08  7.4959647896075646e-08  8.8707941952442863e-08  1.0582378390604683e-07  1.2750635588377069e-07  2.2488606440317571e-07  3.0763919708851708e-07  3.0488622200978824e-07  3.0436218051357029e-07  3.0403659273208050e-07  3.0383906149092948e-07  3.0372420122134238e-07  3.0367372325794517e-07  3.0370134270561164e-07  3.0385677655046355e-07  3.0423575112060423e-07  3.0500129635421984e-07  3.0642445168589744e-07  3.0895736885660767e-07  3.1341755960524575e-07  3.2548518368332507e-07  3.3679444015451517e-07  2.5922822718147032e-09  4.4488428280258794e-09  8.0155716059433336e-09  1.1938571144722030e-08  1.6075935958122708e-08  2.0460521792905262e-08  2.5155795875097939e-08  3.0245107730864670e-08  3.5837372840148559e-08  4.2082094261981377e-08  4.9198314902572258e-08  5.7529983116556747e-08  6.7654434069129685e-08  8.0595746064111720e-08  9.8209201128621229e-08  1.2370303005871310e-07  2.2542088475911195e-07  3.0920957831702353e-07  3.0584375274980145e-07  3.0488622200982890e-07  3.0434260066432100e-07  3.0403896172533290e-07  3.0387779627110834e-07  3.0382132032326038e-07  3.0387650257223302e-07  3.0409229102181837e-07  3.0456961507250540e-07  3.0548936057065173e-07  3.0717536298730365e-07  3.1023511877071023e-07  3.1590802752302259e-07  3.3054167200873807e-07  3.4026792078124590e-07  3.9167759801887648e-09  5.1969999408393868e-09  8.0356387446996001e-09  1.1416121347797829e-08  1.5062121375638272e-08  1.8936115019364853e-08  2.3061407893180614e-08  2.7488386095588854e-08  3.2291921753820883e-08  3.7581865224124261e-08  4.3528496707133879e-08  5.0416778246763021e-08  5.8768472636932220e-08  6.9652424164031328e-08  8.5650665397935450e-08  1.1453321719487529e-07  2.2545510681932969e-07  3.1379243216180668e-07  3.0920957831700256e-07  3.0763919708855668e-07  3.0689005682877220e-07  3.0650427676039550e-07  3.0632204147976449e-07  3.0628883470547609e-07  3.0640604274636021e-07  3.0672073533775460e-07  3.0733486123420333e-07  3.0843725717832429e-07  3.1038473332569329e-07  3.1392784325766114e-07  3.2102658624631100e-07  3.4030074213582532e-07  3.4316615365683307e-07  5.3439331847495539e-09  6.2107709179767249e-09  8.3492786043477510e-09  1.1112889427353544e-08  1.4197843198960137e-08  1.7505726601602226e-08  2.1015440231901638e-08  2.4739147968363367e-08  2.8710900699430262e-08  3.2989268217999650e-08  3.7671920312806299e-08  4.2930181234152553e-08  4.9090390083685912e-08  5.6854312403411856e-08  6.8089744535788925e-08  9.1014064761963752e-08  1.6553354336379527e-07  2.2545510681922053e-07  2.2542088475903659e-07  2.2488606440308351e-07  2.2465347509750405e-07  2.2485600596267799e-07  2.2551646309309665e-07  2.2664971539494354e-07  2.2827844843119902e-07  2.3043951998280856e-07  2.3319346682702924e-07  2.3664399177463509e-07  2.4098048085341145e-07  2.4658164469710717e-07  2.5434101451864030e-07  2.6935214430167365e-07  2.6761557274388846e-07  6.6712562478308210e-09  7.2656559447764147e-09  8.8347692691483455e-09  1.1001799926677705e-08  1.3511600960296986e-08  1.6238746097758024e-08  1.9127282554637379e-08  2.2154866683820520e-08  2.5318002197271210e-08  2.8628911897552380e-08  3.2121490669284550e-08  3.5870763949411647e-08  4.0043918256055510e-08  4.5048061354928315e-08  5.2063380738545731e-08  6.5889286250514805e-08  9.1014064761998215e-08  1.1453321719491126e-07  1.2370303005872700e-07  1.2750635588381207e-07  1.2967715034083790e-07  1.3151203395194338e-07  1.3350733407451264e-07  1.3588054431710090e-07  1.3872679773139916e-07  1.4207072516830636e-07  1.4588027141244163e-07  1.5005735867256937e-07  1.5439646143013032e-07  1.5846976670011986e-07  1.6137072217319253e-07  1.6293065333136948e-07  1.6075854320199496e-07  7.8441892876889698e-09  8.2570085379755097e-09  9.3930004566551175e-09  1.1040002758406986e-08  1.3011455813599405e-08  1.5185227253347319e-08  1.7487624958767244e-08  1.9873408306948047e-08  2.2314365211967074e-08  2.4796516802353933e-08  2.7327272126625650e-08  2.9960885290502416e-08  3.2867935491291765e-08  3.6518156431803897e-08  4.2119177024755612e-08  5.2063380738613468e-08  6.8089744535794801e-08  8.5650665397832800e-08  9.8209201128616345e-08  1.0582378390606303e-07  1.1063541980890896e-07  1.1405909750214831e-07  1.1683253299498379e-07  1.1931938147496067e-07  1.2167221811687234e-07  1.2390041646150002e-07  1.2588488560551495e-07  1.2735293761649776e-07  1.2780921059948158e-07  1.2642899981516328e-07  1.2212511659907775e-07  1.1494769084329588e-07  1.1038207060486835e-07  8.8463460176638958e-09  9.1360218438361142e-09  9.9533487043391018e-09  1.1178279519573799e-08  1.2683360709724009e-08  1.4365867676357792e-08  1.6150961811632328e-08  1.7985430183275110e-08  1.9833488654661600e-08  2.1679734739856976e-08  2.3544950579107096e-08  2.5526651906736308e-08  2.7886355251206579e-08  3.1203286103369714e-08  3.6518156431802348e-08  4.5048061354884197e-08  5.6854312403411916e-08  6.9652424164056925e-08  8.0595746064130579e-08  8.8707941952454006e-08  9.4476576378044612e-08  9.8653370583502120e-08  1.0179544306460197e-07  1.0422896676188433e-07  1.0609588280489366e-07  1.0738844798729954e-07  1.0795918032763862e-07  1.0751144506693379e-07  1.0559124846826693e-07  1.0166360436797410e-07  9.5559492574195456e-08  8.8783678595012051e-08  8.5544459313990163e-08  9.6779539439305226e-09  9.8829917939730981e-09  1.0470162303179685e-08  1.1369264382255529e-08  1.2495291144546333e-08  1.3769062399494049e-08  1.5125677113562808e-08  1.6516710968905045e-08  1.7913258109559585e-08  1.9315739183752418e-08  2.0777063176962413e-08  2.2446991666406959e-08  2.4639118574793293e-08  2.7886355251198294e-08  3.2867935491312960e-08  4.0043918256078460e-08  4.9090390083703760e-08  5.8768472636946726e-08  6.7654434069128586e-08  7.4959647896096624e-08  8.0607055463567834e-08  8.4855514674081829e-08  8.7999094593130364e-08  9.0245116696638101e-08  9.1686107142763759e-08  9.2300523972757694e-08  9.1958822433876731e-08  9.0437419788945204e-08  8.7469965519206799e-08  8.2915347875185119e-08  7.7180926011710208e-08  7.1860061437691324e-08  6.9593965100282441e-08  1.0348491995716790e-08  1.0494766671493540e-08  1.0917337289849049e-08  1.1573228470781999e-08  1.2405779801984447e-08  1.3357234981515363e-08  1.4377364640125323e-08  1.5429723090993667e-08  1.6499460415291951e-08  1.7607127000696325e-08  1.8832423349035638e-08  2.0347756660295726e-08  2.2446991666406205e-08  2.5526651906743081e-08  2.9960885290500384e-08  3.5870763949399272e-08  4.2930181234161665e-08  5.0416778246797154e-08  5.7529983116572596e-08  6.3716437231209723e-08  6.8762091290391922e-08  7.2684619175039980e-08  7.5587966795878018e-08  7.7566154649747894e-08  7.8658799480831026e-08  7.8837708884153697e-08  7.8012475970281389e-08  7.6058629049636075e-08  7.2890713781744169e-08  6.8622161068125370e-08  6.3836469917082860e-08  5.9816270113942420e-08  5.8205120129249786e-08  1.0873034743908939e-08  1.0978116614257837e-08  1.1283279820943516e-08  1.1761049311963642e-08  1.2373396443489992e-08  1.3079754766302266e-08  1.3844535708899615e-08  1.4644662230262063e-08  1.5479159973613657e-08  1.6383115584283137e-08  1.7446518177660716e-08  1.8832423349040703e-08  2.0777063176957122e-08  2.3544950579111924e-08  2.7327272126631863e-08  3.2121490669319907e-08  3.7671920312824894e-08  4.3528496707181148e-08  4.9198314902577837e-08  5.4293544514358418e-08  5.8593654222472824e-08  6.2019244924861490e-08  6.4568068620003839e-08  6.6257342979053281e-08  6.7088446237324856e-08  6.7033663930843547e-08  6.6043050892218939e-08  6.4075473318164691e-08  6.1165699357977657e-08  5.7540109150190293e-08  5.3761447000265142e-08  5.0776880333082670e-08  4.9623842263037093e-08  1.1269895246001434e-08  1.1345749572118111e-08  1.1566745611477037e-08  1.1914709233844169e-08  1.2363909691596869e-08  1.2886549077691018e-08  1.3459010849751231e-08  1.4069108090167615e-08  1.4725244639919584e-08  1.5468091634770000e-08  1.6383115584300478e-08  1.7607127000702879e-08  1.9315739183750896e-08  2.1679734739850464e-08  2.4796516802356990e-08  2.8628911897541968e-08  3.2989268217992271e-08  3.7581865224105024e-08  4.2082094261961247e-08  4.6211798780696535e-08  4.9778549029340047e-08  5.2673671989736019e-08  5.4845800341440817e-08  5.6270390178595327e-08  5.6927882140543837e-08  5.6795546820332069e-08  5.5855305065437439e-08  5.4120771429617085e-08  5.1687700222689948e-08  4.8805992500911195e-08  4.5945816276695966e-08  4.3777674129888954e-08  4.2960072275897053e-08  1.1558879701836353e-08  1.1613648056930381e-08  1.1773510956791155e-08  1.2026092593928004e-08  1.2353742816592634e-08  1.2737505645259057e-08  1.3162152395071682e-08  1.3622392309809334e-08  1.4130530517997495e-08  1.4725244639925478e-08  1.5479159973598874e-08  1.6499460415282141e-08  1.7913258109564624e-08  1.9833488654671784e-08  2.2314365211956910e-08  2.5318002197276107e-08  2.8710900699430206e-08  3.2291921753819499e-08  3.5837372840156686e-08  3.9143474932982473e-08  4.2051734351186748e-08  4.4453740552687263e-08  4.6281495262464274e-08  4.7492893698379594e-08  4.8060351170830615e-08  4.7967496475272531e-08  4.7216803154448992e-08  4.5850031772720772e-08  4.3981447942076908e-08  4.1837160689055675e-08  3.9777947589761063e-08  3.8260707055519671e-08  3.7698093547500423e-08  1.1759940157518297e-08  1.1799170650854938e-08  1.1913737517586410e-08  1.2094906353187568e-08  1.2