<?xml version="1.0"?>
<VTKFile type="UnstructuredGrid"  version="0.1"  >
<UnstructuredGrid>
<Piece  NumberOfPoints="8321" NumberOfCells="16384">
<Points>
<DataArray  type="Float64"  NumberOfComponents="3"  format="ascii">0 0 0  0.03125 0 0  0.0625 0 0  0.09375 0 0  0.125 0 0  0.15625 0 0  0.1875 0 0  0.21875 0 0  0.25 0 0  0.28125 0 0  0.3125 0 0  0.34375 0 0  0.375 0 0  0.40625 0 0  0.4375 0 0  0.46875 0 0  0.5 0 0  0.53125 0 0  0.5625 0 0  0.59375 0 0  0.625 0 0  0.65625 0 0  0.6875 0 0  0.71875 0 0  0.75 0 0  0.78125 0 0  0.8125 0 0  0.84375 0 0  0.875 0 0  0.90625 0 0  0.9375 0 0  0.96875 0 0  1 0 0  0 0.03125 0  0.03125 0.03125 0  0.0625 0.03125 0  0.09375 0.03125 0  0.125 0.03125 0  0.15625 0.03125 0  0.1875 0.03125 0  0.21875 0.03125 0  0.25 0.03125 0  0.28125 0.03125 0  0.3125 0.03125 0  0.34375 0.03125 0  0.375 0.03125 0  0.40625 0.03125 0  0.4375 0.03125 0  0.46875 0.03125 0  0.5 0.03125 0  0.53125 0.03125 0  0.5625 0.03125 0  0.59375 0.03125 0  0.625 0.03125 0  0.65625 0.03125 0  0.6875 0.03125 0  0.71875 0.03125 0  0.75 0.03125 0  0.78125 0.03125 0  0.8125 0.03125 0  0.84375 0.03125 0  0.875 0.03125 0  0.90625 0.03125 0  0.9375 0.03125 0  0.96875 0.03125 0  1 0.03125 0  0 0.0625 0  0.03125 0.0625 0  0.0625 0.0625 0  0.09375 0.0625 0  0.125 0.0625 0  0.15625 0.0625 0  0.1875 0.0625 0  0.21875 0.0625 0  0.25 0.0625 0  0.28125 0.0625 0  0.3125 0.0625 0  0.34375 0.0625 0  0.375 0.0625 0  0.40625 0.0625 0  0.4375 0.0625 0  0.46875 0.0625 0  0.5 0.0625 0  0.53125 0.0625 0  0.5625 0.0625 0  0.59375 0.0625 0  0.625 0.0625 0  0.65625 0.0625 0  0.6875 0.0625 0  0.71875 0.0625 0  0.75 0.0625 0  0.78125 0.0625 0  0.8125 0.0625 0  0.84375 0.0625 0  0.875 0.0625 0  0.90625 0.0625 0  0.9375 0.0625 0  0.96875 0.0625 0  1 0.0625 0  0 0.09375 0  0.03125 0.09375 0  0.0625 0.09375 0  0.09375 0.09375 0  0.125 0.09375 0  0.15625 0.09375 0  0.1875 0.09375 0  0.21875 0.09375 0  0.25 0.09375 0  0.28125 0.09375 0  0.3125 0.09375 0  0.34375 0.09375 0  0.375 0.09375 0  0.40625 0.09375 0  0.4375 0.09375 0  0.46875 0.09375 0  0.5 0.09375 0  0.53125 0.09375 0  0.5625 0.09375 0  0.59375 0.09375 0  0.625 0.09375 0  0.65625 0.09375 0  0.6875 0.09375 0  0.71875 0.09375 0  0.75 0.09375 0  0.78125 0.09375 0  0.8125 0.09375 0  0.84375 0.09375 0  0.875 0.09375 0  0.90625 0.09375 0  0.9375 0.09375 0  0.96875 0.09375 0  1 0.09375 0  0 0.125 0  0.03125 0.125 0  0.0625 0.125 0  0.09375 0.125 0  0.125 0.125 0  0.15625 0.125 0  0.1875 0.125 0  0.21875 0.125 0  0.25 0.125 0  0.28125 0.125 0  0.3125 0.125 0  0.34375 0.125 0  0.375 0.125 0  0.40625 0.125 0  0.4375 0.125 0  0.46875 0.125 0  0.5 0.125 0  0.53125 0.125 0  0.5625 0.125 0  0.59375 0.125 0  0.625 0.125 0  0.65625 0.125 0  0.6875 0.125 0  0.71875 0.125 0  0.75 0.125 0  0.78125 0.125 0  0.8125 0.125 0  0.84375 0.125 0  0.875 0.125 0  0.90625 0.125 0  0.9375 0.125 0  0.96875 0.125 0  1 0.125 0  0 0.15625 0  0.03125 0.15625 0  0.0625 0.15625 0  0.09375 0.15625 0  0.125 0.15625 0  0.15625 0.15625 0  0.1875 0.15625 0  0.21875 0.15625 0  0.25 0.15625 0  0.28125 0.15625 0  0.3125 0.15625 0  0.34375 0.15625 0  0.375 0.15625 0  0.40625 0.15625 0  0.4375 0.15625 0  0.46875 0.15625 0  0.5 0.15625 0  0.53125 0.15625 0  0.5625 0.15625 0  0.59375 0.15625 0  0.625 0.15625 0  0.65625 0.15625 0  0.6875 0.15625 0  0.71875 0.15625 0  0.75 0.15625 0  0.78125 0.15625 0  0.8125 0.15625 0  0.84375 0.15625 0  0.875 0.15625 0  0.90625 0.15625 0  0.9375 0.15625 0  0.96875 0.15625 0  1 0.15625 0  0 0.1875 0  0.03125 0.1875 0  0.0625 0.1875 0  0.09375 0.1875 0  0.125 0.1875 0  0.15625 0.1875 0  0.1875 0.1875 0  0.21875 0.1875 0  0.25 0.1875 0  0.28125 0.1875 0  0.3125 0.1875 0  0.34375 0.1875 0  0.375 0.1875 0  0.40625 0.1875 0  0.4375 0.1875 0  0.46875 0.1875 0  0.5 0.1875 0  0.53125 0.1875 0  0.5625 0.1875 0  0.59375 0.1875 0  0.625 0.1875 0  0.65625 0.1875 0  0.6875 0.1875 0  0.71875 0.1875 0  0.75 0.1875 0  0.78125 0.1875 0  0.8125 0.1875 0  0.84375 0.1875 0  0.875 0.1875 0  0.90625 0.1875 0  0.9375 0.1875 0  0.96875 0.1875 0  1 0.1875 0  0 0.21875 0  0.03125 0.21875 0  0.0625 0.21875 0  0.09375 0.21875 0  0.125 0.21875 0  0.15625 0.21875 0  0.1875 0.21875 0  0.21875 0.21875 0  0.25 0.21875 0  0.28125 0.21875 0  0.3125 0.21875 0  0.34375 0.21875 0  0.375 0.21875 0  0.40625 0.21875 0  0.4375 0.21875 0  0.46875 0.21875 0  0.5 0.21875 0  0.53125 0.21875 0  0.5625 0.21875 0  0.59375 0.21875 0  0.625 0.21875 0  0.65625 0.21875 0  0.6875 0.21875 0  0.71875 0.21875 0  0.75 0.21875 0  0.78125 0.21875 0  0.8125 0.21875 0  0.84375 0.21875 0  0.875 0.21875 0  0.90625 0.21875 0  0.9375 0.21875 0  0.96875 0.21875 0  1 0.21875 0  0 0.25 0  0.03125 0.25 0  0.0625 0.25 0  0.09375 0.25 0  0.125 0.25 0  0.15625 0.25 0  0.1875 0.25 0  0.21875 0.25 0  0.25 0.25 0  0.28125 0.25 0  0.3125 0.25 0  0.34375 0.25 0  0.375 0.25 0  0.40625 0.25 0  0.4375 0.25 0  0.46875 0.25 0  0.5 0.25 0  0.53125 0.25 0  0.5625 0.25 0  0.59375 0.25 0  0.625 0.25 0  0.65625 0.25 0  0.6875 0.25 0  0.71875 0.25 0  0.75 0.25 0  0.78125 0.25 0  0.8125 0.25 0  0.84375 0.25 0  0.875 0.25 0  0.90625 0.25 0  0.9375 0.25 0  0.96875 0.25 0  1 0.25 0  0 0.28125 0  0.03125 0.28125 0  0.0625 0.28125 0  0.09375 0.28125 0  0.125 0.28125 0  0.15625 0.28125 0  0.1875 0.28125 0  0.21875 0.28125 0  0.25 0.28125 0  0.28125 0.28125 0  0.3125 0.28125 0  0.34375 0.28125 0  0.375 0.28125 0  0.40625 0.28125 0  0.4375 0.28125 0  0.46875 0.28125 0  0.5 0.28125 0  0.53125 0.28125 0  0.5625 0.28125 0  0.59375 0.28125 0  0.625 0.28125 0  0.65625 0.28125 0  0.6875 0.28125 0  0.71875 0.28125 0  0.75 0.28125 0  0.78125 0.28125 0  0.8125 0.28125 0  0.84375 0.28125 0  0.875 0.28125 0  0.90625 0.28125 0  0.9375 0.28125 0  0.96875 0.28125 0  1 0.28125 0  0 0.3125 0  0.03125 0.3125 0  0.0625 0.3125 0  0.09375 0.3125 0  0.125 0.3125 0  0.15625 0.3125 0  0.1875 0.3125 0  0.21875 0.3125 0  0.25 0.3125 0  0.28125 0.3125 0  0.3125 0.3125 0  0.34375 0.3125 0  0.375 0.3125 0  0.40625 0.3125 0  0.4375 0.3125 0  0.46875 0.3125 0  0.5 0.3125 0  0.53125 0.3125 0  0.5625 0.3125 0  0.59375 0.3125 0  0.625 0.3125 0  0.65625 0.3125 0  0.6875 0.3125 0  0.71875 0.3125 0  0.75 0.3125 0  0.78125 0.3125 0  0.8125 0.3125 0  0.84375 0.3125 0  0.875 0.3125 0  0.90625 0.3125 0  0.9375 0.3125 0  0.96875 0.3125 0  1 0.3125 0  0 0.34375 0  0.03125 0.34375 0  0.0625 0.34375 0  0.09375 0.34375 0  0.125 0.34375 0  0.15625 0.34375 0  0.1875 0.34375 0  0.21875 0.34375 0  0.25 0.34375 0  0.28125 0.34375 0  0.3125 0.34375 0  0.34375 0.34375 0  0.375 0.34375 0  0.40625 0.34375 0  0.4375 0.34375 0  0.46875 0.34375 0  0.5 0.34375 0  0.53125 0.34375 0  0.5625 0.34375 0  0.59375 0.34375 0  0.625 0.34375 0  0.65625 0.34375 0  0.6875 0.34375 0  0.71875 0.34375 0  0.75 0.34375 0  0.78125 0.34375 0  0.8125 0.34375 0  0.84375 0.34375 0  0.875 0.34375 0  0.90625 0.34375 0  0.9375 0.34375 0  0.96875 0.34375 0  1 0.34375 0  0 0.375 0  0.03125 0.375 0  0.0625 0.375 0  0.09375 0.375 0  0.125 0.375 0  0.15625 0.375 0  0.1875 0.375 0  0.21875 0.375 0  0.25 0.375 0  0.28125 0.375 0  0.3125 0.375 0  0.34375 0.375 0  0.375 0.375 0  0.40625 0.375 0  0.4375 0.375 0  0.46875 0.375 0  0.5 0.375 0  0.53125 0.375 0  0.5625 0.375 0  0.59375 0.375 0  0.625 0.375 0  0.65625 0.375 0  0.6875 0.375 0  0.71875 0.375 0  0.75 0.375 0  0.78125 0.375 0  0.8125 0.375 0  0.84375 0.375 0  0.875 0.375 0  0.90625 0.375 0  0.9375 0.375 0  0.96875 0.375 0  1 0.375 0  0 0.40625 0  0.03125 0.40625 0  0.0625 0.40625 0  0.09375 0.40625 0  0.125 0.40625 0  0.15625 0.40625 0  0.1875 0.40625 0  0.21875 0.40625 0  0.25 0.40625 0  0.28125 0.40625 0  0.3125 0.40625 0  0.34375 0.40625 0  0.375 0.40625 0  0.40625 0.40625 0  0.4375 0.40625 0  0.46875 0.40625 0  0.5 0.40625 0  0.53125 0.40625 0  0.5625 0.40625 0  0.59375 0.40625 0  0.625 0.40625 0  0.65625 0.40625 0  0.6875 0.40625 0  0.71875 0.40625 0  0.75 0.40625 0  0.78125 0.40625 0  0.8125 0.40625 0  0.84375 0.40625 0  0.875 0.40625 0  0.90625 0.40625 0  0.9375 0.40625 0  0.96875 0.40625 0  1 0.40625 0  0 0.4375 0  0.03125 0.4375 0  0.0625 0.4375 0  0.09375 0.4375 0  0.125 0.4375 0  0.15625 0.4375 0  0.1875 0.4375 0  0.21875 0.4375 0  0.25 0.4375 0  0.28125 0.4375 0  0.3125 0.4375 0  0.34375 0.4375 0  0.375 0.4375 0  0.40625 0.4375 0  0.4375 0.4375 0  0.46875 0.4375 0  0.5 0.4375 0  0.53125 0.4375 0  0.5625 0.4375 0  0.59375 0.4375 0  0.625 0.4375 0  0.65625 0.4375 0  0.6875 0.4375 0  0.71875 0.4375 0  0.75 0.4375 0  0.78125 0.4375 0  0.8125 0.4375 0  0.84375 0.4375 0  0.875 0.4375 0  0.90625 0.4375 0  0.9375 0.4375 0  0.96875 0.4375 0  1 0.4375 0  0 0.46875 0  0.03125 0.46875 0  0.0625 0.46875 0  0.09375 0.46875 0  0.125 0.46875 0  0.15625 0.46875 0  0.1875 0.46875 0  0.21875 0.46875 0  0.25 0.46875 0  0.28125 0.46875 0  0.3125 0.46875 0  0.34375 0.46875 0  0.375 0.46875 0  0.40625 0.46875 0  0.4375 0.46875 0  0.46875 0.46875 0  0.5 0.46875 0  0.53125 0.46875 0  0.5625 0.46875 0  0.59375 0.46875 0  0.625 0.46875 0  0.65625 0.46875 0  0.6875 0.46875 0  0.71875 0.46875 0  0.75 0.46875 0  0.78125 0.46875 0  0.8125 0.46875 0  0.84375 0.46875 0  0.875 0.46875 0  0.90625 0.46875 0  0.9375 0.46875 0  0.96875 0.46875 0  1 0.46875 0  0 0.5 0  0.03125 0.5 0  0.0625 0.5 0  0.09375 0.5 0  0.125 0.5 0  0.15625 0.5 0  0.1875 0.5 0  0.21875 0.5 0  0.25 0.5 0  0.28125 0.5 0  0.3125 0.5 0  0.34375 0.5 0  0.375 0.5 0  0.40625 0.5 0  0.4375 0.5 0  0.46875 0.5 0  0.5 0.5 0  0.53125 0.5 0  0.5625 0.5 0  0.59375 0.5 0  0.625 0.5 0  0.65625 0.5 0  0.6875 0.5 0  0.71875 0.5 0  0.75 0.5 0  0.78125 0.5 0  0.8125 0.5 0  0.84375 0.5 0  0.875 0.5 0  0.90625 0.5 0  0.9375 0.5 0  0.96875 0.5 0  1 0.5 0  0 0.53125 0  0.03125 0.53125 0  0.0625 0.53125 0  0.09375 0.53125 0  0.125 0.53125 0  0.15625 0.53125 0  0.1875 0.53125 0  0.21875 0.53125 0  0.25 0.53125 0  0.28125 0.53125 0  0.3125 0.53125 0  0.34375 0.53125 0  0.375 0.53125 0  0.40625 0.53125 0  0.4375 0.53125 0  0.46875 0.53125 0  0.5 0.53125 0  0.53125 0.53125 0  0.5625 0.53125 0  0.59375 0.53125 0  0.625 0.53125 0  0.65625 0.53125 0  0.6875 0.53125 0  0.71875 0.53125 0  0.75 0.53125 0  0.78125 0.53
[...]
<PointData  Scalars="dual solution"> 
<DataArray  type="Float64"  Name="dual solution"  format="ascii">0.0000000000000000e+00  0.0000000000000000e+00  0.0000000000000000e+00  0.0000000000000000e+00  0.0000000000000000e+00  0.0000000000000000e+00  0.0000000000000000e+00  0.0000000000000000e+00  0.0000000000000000e+00  0.0000000000000000e+00  0.0000000000000000e+00  0.0000000000000000e+00  0.0000000000000000e+00  0.0000000000000000e+00  0.0000000000000000e+00  0.0000000000000000e+00  0.0000000000000000e+00  0.0000000000000000e+00  0.0000000000000000e+00  0.0000000000000000e+00  0.0000000000000000e+00  0.0000000000000000e+00  0.0000000000000000e+00  0.0000000000000000e+00  0.0000000000000000e+00  0.0000000000000000e+00  0.0000000000000000e+00  0.0000000000000000e+00  0.0000000000000000e+00  0.0000000000000000e+00  0.0000000000000000e+00  0.0000000000000000e+00  0.0000000000000000e+00  0.0000000000000000e+00  4.3083169056473512e-04  8.6931511899930938e-04  1.3233569797678408e-03  1.8013915340159481e-03  2.3126915112156245e-03  2.8677448909973269e-03  3.4787385182765127e-03  4.1602145187009431e-03  4.9300133968476940e-03  5.8107140027757178e-03  6.8319876915979294e-03  8.0347714967766732e-03  9.4794577742707328e-03  1.1264321284232328e-02  1.3575900602742816e-02  1.6865018715248606e-02  2.0082235189320813e-02  2.2176600143419788e-02  2.3594344089764904e-02  2.4514131259358397e-02  2.5022725671269477e-02  2.5164821655003198e-02  2.4960652092639098e-02  2.4412966544573277e-02  2.3509377214067931e-02  2.2221852543224799e-02  2.0503429490887147e-02  1.8280751296597644e-02  1.5438243295262001e-02  1.1781593978186762e-02  6.9371662771427365e-03  0.0000000000000000e+00  0.0000000000000000e+00  8.5405884616511756e-04  1.7231694227043280e-03  2.6228762477067862e-03  3.5697419060718070e-03  4.5819423796833077e-03  5.6799816583007609e-03  6.8875968733299970e-03  8.2329652574811753e-03  9.7503980039126449e-03  1.1482846320521344e-02  1.3485823050941804e-02  1.5833921414687851e-02  1.8632363276357339e-02  2.2038670835308315e-02  2.6303440350483393e-02  3.1838360733342640e-02  3.7230975482505070e-02  4.1065872161632697e-02  4.3745749825560253e-02  4.5505803299300381e-02  4.6481071479591067e-02  4.6746177054937429e-02  4.6335477623918243e-02  4.5252397990297379e-02  4.3472676493335631e-02  4.0943312392716799e-02  3.7577190808332502e-02  3.3241623790684280e-02  2.7736262796909675e-02  2.0750370749028677e-02  1.1781593978186776e-02  0.0000000000000000e+00  0.0000000000000000e+00  1.2623255595241173e-03  2.5466159778168027e-03  3.8755351416348105e-03  5.2731875208544190e-03  6.7659505106520447e-03  8.3834587636780582e-03  1.0159825331706880e-02  1.2135225375658804e-02  1.4358038579515921e-02  1.6887867603987285e-02  1.9799957193484225e-02  2.3191877337397832e-02  2.7193795347070927e-02  3.1983816351125550e-02  3.7807486399691607e-02  4.5000333362833926e-02  5.1983404135429567e-02  5.7173463170218458e-02  6.0893022088702460e-02  6.3365355961246025e-02  6.4736126130432267e-02  6.5091483121069132e-02  6.4471382302698207e-02  6.2876974145332984e-02  6.0273169054889171e-02  5.6587074280759903e-02  5.1702119447599983e-02  4.5446666144702490e-02  3.7574761883266306e-02  2.7736262796909685e-02  1.5438243295262027e-02  0.0000000000000000e+00  0.0000000000000000e+00  1.6487570240606754e-03  3.3257007890451916e-03  5.0598818031770106e-03  6.8821251997948103e-03  8.8260407849712324e-03  1.0929195338477303e-02  1.3234529209741620e-02  1.5792129664732309e-02  1.8661520063949010e-02  2.1914691315467832e-02  2.5640186822475625e-02  2.9948615976964091e-02  3.4979859326629184e-02  4.0911486277675359e-02  4.7965665185222883e-02  5.6418160070311626e-02  6.4597659457759901e-02  7.0827409279314538e-02  7.5366643668154779e-02  7.8409293184439760e-02  8.0091897504059678e-02  8.0498885940325726e-02  7.9668688271765972e-02  7.7597753888191651e-02  7.4241697417558553e-02  6.9513389963335129e-02  6.3277751466555177e-02  5.5342802407270374e-02  4.5446666144702497e-02  3.3241623790684315e-02  1.8280751296597678e-02  0.0000000000000000e+00  0.0000000000000000e+00  2.0071620815051232e-03  4.0478776784038592e-03  6.1566826292387194e-03  8.3701242353518990e-03  1.0727887404234387e-02  1.3274074966905134e-02  1.6058710289360973e-02  1.9139545235344720e-02  2.2584273840164797e-02  2.6473264926008152e-02  3.0902914634686311e-02  3.5989629054826007e-02  4.1874161684683192e-02  4.8725366375841864e-02  5.6741305285840170e-02  6.6154843799651974e-02  7.5237572695222285e-02  8.2254679505770645e-02  8.7419598503044649e-02  9.0897256286029446e-02  9.2808496593510842e-02  9.3229457346411720e-02  9.2192930778503393e-02  8.9689505451656645e-02  8.5667367227699465e-02  8.0030267387308590e-02  7.2633469363058867e-02  6.3277751466555190e-02  5.1702119447600010e-02  3.7577190808332557e-02  2.0503429490887199e-02  0.0000000000000000e+00  0.0000000000000000e+00  2.3321961859361813e-03  4.7023389999663002e-03  7.1494297555161927e-03  9.7146223572759441e-03  1.2442409120473383e-02  1.5381941777014040e-02  1.8588537638710323e-02  2.2125421405214320e-02  2.6065746435429020e-02  3.0494915037690692e-02  3.5513155220100075e-02  4.1238176326320160e-02  4.7807471257854769e-02  5.5379436990038701e-02  6.4132060273277544e-02  7.4268019238057051e-02  8.4021716630566290e-02  9.1620410382789397e-02  9.7245115783098648e-02  1.0103694393237943e-01  1.0310101348693539e-01  1.0350340402552476e-01  1.0226993763944082e-01  9.9385460860208191e-02  9.4792728842722121e-02  8.8390430764848052e-02  8.0030267387308590e-02  6.9513389963335143e-02  5.6587074280759930e-02  4.0943312392716875e-02  2.2221852543224858e-02  0.0000000000000000e+00  0.0000000000000000e+00  2.6194799067939746e-03  5.2802529190009891e-03  8.0246962561175226e-03  1.0897393458654057e-02  1.3946332672648861e-02  1.7224218052499952e-02  2.0789927817461092e-02  2.4710143121910173e-02  2.9061150822366162e-02  3.3930780939078302e-02  3.9420362412072814e-02  4.5646453457392475e-02  5.2741920498630246e-02  6.0855735482484116e-02  7.0150745306492596e-02  8.0808999560267242e-02  9.1040642613766820e-02  9.9048159056818852e-02  1.0499039329740197e-01  1.0899075741629703e-01  1.1114139696712348e-01  1.1149929172930044e-01  1.1008384534055307e-01  1.0687519496667650e-01  1.0181262233564803e-01  9.4792728842722135e-02  8.5667367227699437e-02  7.4241697417558553e-02  6.0273169054889220e-02  4.3472676493335631e-02  2.3509377214067952e-02  0.0000000000000000e+00  0.0000000000000000e+00  2.8656724546148389e-03  5.7749075194686575e-03  8.7723432583306626e-03  1.1904801587906976e-02  1.5222461559648140e-02  1.8780126609848072e-02  2.2638608286404165e-02  2.6866235287000523e-02  3.1540470486131220e-02  3.6749572335680263e-02  4.2594161794443447e-02  4.9188446482177364e-02  5.6660719353463070e-02  6.5152631132097794e-02  7.4816719145612720e-02  8.5822037766842024e-02  9.6364013235571241e-02  1.0463012160292655e-01  1.1076535024046537e-01  1.1488139878246194e-01  1.1706120568645192e-01  1.1735490658604031e-01  1.1577705716640352e-01  1.1230460984679033e-01  1.0687519496667652e-01  9.9385460860208191e-02  8.9689505451656631e-02  7.7597753888191665e-02  6.2876974145332956e-02  4.5252397990297399e-02  2.4412966544573280e-02  0.0000000000000000e+00  0.0000000000000000e+00  3.0685028756600118e-03  6.1817686203090253e-03  9.3855937885146921e-03  1.2727870966071456e-02  1.6259707315519310e-02  2.0036623906686885e-02  2.4119854025477006e-02  2.8577745990025258e-02  3.3487252550099843e-02  3.8935448199063784e-02  4.5020949774565229e-02  5.1855018407726813e-02  5.9561996503253944e-02  6.8278613352304049e-02  7.8151653768595702e-02  8.9343811041859456e-02  1.0004380298557479e-01  1.0843232235591321e-01  1.1464778501743725e-01  1.1879583571342113e-01  1.2095417323754887e-01  1.2116876193181750e-01  1.1945124386517586e-01  1.1577705716640344e-01  1.1008384534055307e-01  1.0226993763944071e-01  9.2192930778503143e-02  7.9668688271765903e-02  6.4471382302698194e-02  4.6335477623918257e-02  2.4960652092639132e-02  0.0000000000000000e+00  0.0000000000000000e+00  3.2267632294548879e-03  6.4984613095752080e-03  9.8609921624480869e-03  1.3362205219766233e-02  1.7052940044773868e-02  2.0988138433541904e-02  2.5228049828260293e-02  2.9839542658140567e-02  3.4897520030777472e-02  4.0486411393733615e-02  4.6701662765990457e-02  5.3651061873867194e-02  6.1455593183123401e-02  7.0249319494251006e-02  8.0177597699822578e-02  9.1403127033227172e-02  1.0211565612537096e-01  1.1049703523961320e-01  1.1668608414174440e-01  1.2078774259442648e-01  1.2287818006762802e-01  1.2300167698571625e-01  1.2116876193181754e-01  1.1735490658604024e-01  1.1149929172930034e-01  1.0350340402552459e-01  9.3229457346411512e-02  8.0498885940325657e-02  6.5091483121069119e-02  4.6746177054937443e-02  2.5164821655003240e-02  0.0000000000000000e+00  0.0000000000000000e+00  3.3402684134636006e-03  6.7246853607204997e-03  1.0198266377012266e-02  1.3807783548742673e-02  1.7602700580160703e-02  2.1636177175337081e-02  2.5966167712877710e-02  3.0656640461168855e-02  3.5778943983303474e-02  4.1413343756029911e-02  4.7650735066767265e-02  5.4594483543424249e-02  6.2362197976161063e-02  7.1086914271901794e-02  8.0916629536127091e-02  9.2020843779022116e-02  1.0259908679393311e-01  1.1084330039077241e-01  1.1690005772958094e-01  1.2087859749874112e-01  1.2285653108011725e-01  1.2287818006762796e-01  1.2095417323754892e-01  1.1706120568645181e-01  1.1114139696712320e-01  1.0310101348693518e-01  9.2808496593510717e-02  8.0091897504059567e-02  6.4736126130432156e-02  4.6481071479591018e-02  2.5022725671269491e-02  0.0000000000000000e+00  0.0000000000000000e+00  3.4097868366206692e-03  6.8620731016902168e-03  1.0400106685922856e-02  1.4068651712678291e-02  1.7914796321634004e-02  2.1988824390124156e-02  2.6345181120874559e-02  3.1043572910191438e-02  3.6150259417998876e-02  4.1739623052171375e-02  4.7896137534345823e-02  5.4716885397603554e-02  6.2314719146759276e-02  7.0821797613415283e-02  8.0392125176885501e-02  9.1209989705560421e-02  1.0149646959962326e-01  1.0946552781102542e-01  1.1527996842208228e-01  1.1905752686936484e-01  1.2087859749874107e-01  1.2078774259442644e-01  1.1879583571342103e-01  1.1488139878246177e-01  1.0899075741629673e-01  1.0103694393237922e-01  9.0897256286029321e-02  7.8409293184439677e-02  6.3365355961245914e-02  4.5505803299300346e-02  2.4514131259358401e-02  0.0000000000000000e+00  0.0000000000000000e+00  3.4369454982020381e-03  6.9139964311457818e-03  1.0471869096338196e-02  1.4152516263345582e-02  1.7999784246479064e-02  2.2060122843894830e-02  2.6383378718029399e-02  3.1023719895601473e-02  3.6040770438064813e-02  4.1501091202540724e-02  4.7480243473015507e-02  5.4065841017273235e-02  6.1362229802428961e-02  6.9497519659966159e-02  7.8632512521606468e-02  8.8976065922271336e-02  9.8789911113169468e-02  1.0632927305438060e-01  1.1178338279479307e-01  1.1527996842208219e-01  1.1690005772958081e-01  1.1668608414174428e-01  1.1464778501743722e-01  1.1076535024046501e-01  1.0499039329740166e-01  9.7245115783098246e-02  8.7419598503044343e-02  7.5366643668154598e-02  6.0893022088702391e-02  4.3745749825560218e-02  2.3594344089764921e-02  0.0000000000000000e+00  0.0000000000000000e+00  3.4241127558964626e-03  6.8853287905054619e-03  1.0421210244287446e-02  1.4070245326399689e-02  1.7872334059275262e-02  2.1869307251703229e-02  2.6105502503211430e-02  3.0628438799707731e-02  3.5489665802305934e-02  4.0745932108527207e-02  4.6460954944277093e-02  5.2708363858110667e-02  5.9577020128449606e-02  6.7181251288563351e-02  7.5680492717358008e-02  8.5317509174312092e-02  9.4432980104881381e-02  1.0136179465969053e-01  1.0632927305438053e-01  1.0946552781102524e-01  1.1084330039077209e-01  1.1049703523961296e-01  1.0843232235591298e-01  1.0463012160292612e-01  9.9048159056818380e-02  9.1620410382788897e-02  8.2254679505770145e-02  7.0827409279314288e-02  5.7173463170218382e-02  4.1065872161632648e-02  2.2176600143419805e-02  0.0000000000000000e+00  0.0000000000000000e+00  3.3742624896835340e-03  6.7821687451448320e-03  1.0257661367963669e-02  1.3835280867457618e-02  1.7550466185270040e-02  2.1439860391202707e-02  2.5541630628416103e-02  2.9895822412513921e-02  3.4544791000224367e-02  3.9533799886007491e-02  4.4911980283980954e-02  5.0734091009321122e-02  5.7064168345703575e-02  6.3984173367521102e-02  7.1618500363503701e-02  8.0226289842434809e-02  8.8326473063140995e-02  9.4432980104881367e-02  9.8789911113169274e-02  1.0149646959962305e-01  1.0259908679393280e-01  1.0211565612537053e-01  1.0004380298557440e-01  9.6364013235570714e-02  9.1040642613766154e-02  8.4021716630565665e-02  7.5237572695221744e-02  6.4597659457759582e-02  5.1983404135429429e-02  3.7230975482504959e-02  2.0082235189320789e-02  0.0000000000000000e+00  0.0000000000000000e+00  3.2908244871258296e-03  6.6115344044942060e-03  9.9921539223955334e-03  1.3462975931477108e-02  1.7054674118186404e-02  2.0798387272221344e-02  2.4725765024350758e-02  2.8868963235878627e-02  3.3260576505943079e-02  3.7933495067391583e-02  4.2920674097556698e-02  4.8254805566725990e-02  5.3967886481832934e-02  6.0090682845463664e-02  6.6652095614312068e-02  7.3683529074977508e-02  8.0226289842434836e-02  8.5317509174312037e-02  8.8976065922271128e-02  9.1209989705560185e-02  9.2020843779021810e-02  9.1403127033226700e-02  8.9343811041858970e-02  8.5822037766841455e-02  8.0808999560266687e-02  7.4268019238056454e-02  6.6154843799651475e-02  5.6418160070311293e-02  4.5000333362833739e-02  3.1838360733342459e-02  1.6865018715248530e-02  0.0000000000000000e+00  0.0000000000000000e+00  3.1775273733391689e-03  6.3810414727866176e-03  9.6365163544158607e-03  1.2969883373654963e-02  1.6406964630906129e-02  1.9973346682183115e-02  2.3694163887048449e-02  2.7593747525079346e-02  3.1695072349151573e-02  3.6018884108728326e-02  4.0582288881193286e-02  4.5396343365317685e-02  5.0461542476330744e-02  5.5758093839661189e-02  6.1220127134100050e-02  6.6652095614312096e-02  7.1618500363503632e-02  7.5680492717357981e-02  7.8632512521606412e-02  8.0392125176885196e-02  8.0916629536126897e-02  8.0177597699822051e-02  7.8151653768595217e-02  7.4816719145612304e-02  7.0150745306492138e-02  6.4132060273276892e-02  5.6741305285839656e-02  4.7965665185222515e-02  3.7807486399691406e-02  2.6303440350483258e-02  1.3575900602742762e-02  0.0000000000000000e+00  0.0000000000000000e+00  3.0382417563724448e-03  6.0985810102765544e-03  9.2029682158577993e-03  1.2373035506006758e-02  1.5629874129177115e-02  1.8993727188380789e-02  2.2483552573270785e-02  2.6116390225836152e-02  2.9906430443090774e-02  3.3863609692593173e-02  3.7991422025237150e-02  4.2283346841746734e-02  4.6716671524698397e-02  5.1241161463531533e-02  5.5758093839661148e-02  6.0090682845463567e-02  6.3984173367521074e-02  6.7181251288563268e-02  6.9497519659966048e-02  7.0821797613415061e-02  7.1086914271901502e-02  7.0249319494250617e-02  6.8278613352303646e-02  6.5152631132097308e-02  6.0855735482483617e-02  5.5379436990038208e-02  4.8725366375841420e-02  4.0911486277675060e-02  3.1983816351125349e-02  2.2038670835308208e-02  1.1264321284232298e-02  0.0000000000000000e+00  0.0000000000000000e+00  2.8768319048979615e-03  5.7720146726061242e-03  8.7036414792185535e-03  1.1689261709116820e-02  1.4745534856408058e-02  1.7887785826341932e-02  2.1129410443878560e-02  2.4481058604669714e-02  2.7949486448502318e-02  3.1535907751610616e-02  3.5233571147885966e-02  3.9024121529246940e-02  4.2872075934576565e-02  4.6716671524698342e-02  5.0461542476330612e-02  5.3967886481832775e-02  5.7064168345703513e-02  5.9577020128449551e-02  6.1362229802428829e-02  6.2314719146759137e-02  6.2362197976160862e-02  6.1455593183123096e-02  5.9561996503253563e-02  5.6660719353462674e-02  5.2741920498629837e-02  4.7807471257854291e-02  4.1874161684682845e-02  3.4979859326628927e-02  2.7193795347070757e-02  1.8632363276357231e-02  9.4794577742706911e-03  0.0000000000000000e+00  0.0000000000000000e+00  2.6970238527732884e-03  5.4089043983239085e-03  8.1501578493715105e-03  1.0934589887052763e-02  1.3774863642796110e-02  1.6681967195962898e-02  1.9664531624434541e-02  2.2727934199118636e-02  2.5873096574768946e-02  2.9094852743510008e-02  3.2379718131394432e-02  3.5702859307692278e-02  3.9024121529246919e-02  4.2283346841746665e-02  4.5396343365317574e-02  4.8254805566725886e-02  5.0734091009320997e-02  5.2708363858110598e-02  5.4065841017273165e-02  5.4716885397603436e-02  5.4594483543424090e-02  5.3651061873866965e-02  5.1855018407726522e-02  4.9188446482177017e-02  4.5646453457392121e-02  4.1238176326319827e-02  3.5989629054825750e-02  2.9948615976963872e-02  2.3191877337397675e-02  1.5833921414687761e-02  8.0347714967766368e-03  0.0000000000000000e+00  0.0000000000000000e+00  2.5022962888101921e-03  5.0162901319017999e-03  7.5532848683545926e-03  1.0123767419524117e-02  1.2736928082002956e-02  1.5400088084535380e-02  1.8117994042032404e-02  2.0891929309588331e-02  2.3718581404524815e-02  2.6588595630425829e-02  2.9484748514084027e-02  3.2379718131394411e-02  3.5233571147885917e-02  3.7991422025237039e-02  4.0582288881193140e-02  4.2920674097556580e-02  4.4911980283980898e-02  4.6460954944277072e-02  4.7480243473015479e-02  4.7896137534345747e-02  4.7650735066767105e-02  4.6701662765990276e-02  4.5020949774564993e-02  4.2594161794443190e-02  3.9420362412072557e-02  3.5513155220099797e-02  3.0902914634686068e-02  2.5640186822475441e-02  1.9799957193484086e-02  1.3485823050941719e-02  6.8319876915978964e-03  0.0000000000000000e+00  0.0000000000000000e+00  2.2957982254964478e-03  4.6005239045872138e-03  6.9226841530570394e-03  9.2699210068063198e-03  1.1648516800403907e-02  1.4062822158734898e-02  1.6514576452748599e-02  1.9002088263820594e-02  2.1519243712734074e-02  2.4054318514777871e-02  2.6588595630425812e-02  2.9094852743509949e-02  3.1535907751610553e-02  3.3863609692593069e-02  3.6018884108728166e-02  3.7933495067391500e-02  3.9533799886007442e-02  4.0745932108527186e-02  4.1501091202540717e-02  4.1739623052171340e-02  4.1413343756029855e-02  4.0486411393733449e-02  3.8935448199063562e-02  3.6749572335680047e-02  3.3930780939078115e-02  3.0494915037690477e-02  2.6473264926007947e-02  2.1914691315467666e-02  1.6887867603987146e-02  1.1482846320521262e-02  5.8107140027756883e-03  0.0000000000000000e+00  0.0000000000000000e+00  2.0802947457748341e-03  4.1671626446973427e-03  6.2667545899531812e-03  8.3843572207189330e-03  1.0523911261386087e-02  1.2687470117385538e-02  1.4874579188280905e-02  1.7081558851728386e-02  1.9300680916014622e-02  2.1519243712734046e-02  2.3718581404524795e-02  2.5873096574768897e-02  2.7949486448502241e-02  2.9906430443090656e-02  3.1695072349151483e-02  3.3260576505943024e-02  3.4544791000224333e-02  3.5489665802305982e-02  3.6040770438064924e-02  3.6150259417998862e-02  3.5778943983303384e-02  3.4897520030777333e-02  3.3487252550099690e-02  3.1540470486131046e-02  2.9061150822366027e-02  2.6065746435428853e-02  2.2584273840164659e-02  1.8661520063948878e-02  1.4358038579515807e-02  9.7503980039125634e-03  4.9300133968476628e-03  0.0000000000000000e+00  0.0000000000000000e+00  1.8581396312663189e-03  3.7209166836094975e-03  5.5925640847269134e-03  7.4764909536594072e-03  9.3748340837641244e-03  1.1287967010894281e-02  1.3213955983613258e-02  1.5147957180323619e-02  1.7081558851728382e-02  1.9002088263820570e-02  2.0891929309588293e-02  2.2727934199118591e-02  2.4481058604669651e-02  2.6116390225836082e-02  2.7593747525079284e-02  2.8868963235878592e-02  2.9895822412513925e-02  3.0628438799707773e-02  3.1023719895601532e-02  3.1043572910191435e-02  3.0656640461168790e-02  2.9839542658140487e-02  2.8577745990025150e-02  2.6866235287000405e-02  2.4710143121910055e-02  2.2125421405214205e-02  1.9139545235344630e-02  1.5792129664732233e-02  1.2135225375658743e-02  8.2329652574811233e-03  4.1602145187009196e-03  0.0000000000000000e+00  0.0000000000000000e+00  1.6312717769087944e-03  3.2656469433892900e-03  4.9058570575559891e-03  6